                         Program Version 6.1.0  -  RELEASE   -
|  1> # Automatically generated ORCA input
|  2>
|  3> # Number of cores
|  4> %pal nprocs 8 end
|  5> # RAM per core
|  6> %maxcore 3840
|  7>
|  8> ! wB97X-D3
|  9> ! 6-31G**
| 10> ! TightSCF
| 11> ! Freq
| 12> ! NoSym
| 13> ! IRC
| 14>
| 15> %IRC
| 16>     MAXITER 100
| 17>     END
| 18>
| 19> %geom
| 20>   Calc_Hess true
| 21> end
| 22> %Output
| 23>   JSONPropFile True
| 24> End
| 25>
| 26>
| 27> *xyz 0 1
| 28> C        -2.05647800     -2.08167000      0.88774500
| 29> C        -0.71541700     -1.70909900      0.93465100
| 30> C        -0.28416500     -0.42133200      0.59501700
| 31> C        -1.26942000      0.52424300      0.22842000
| 32> C        -2.61511000      0.14482000      0.17402200
| 33> C        -3.00706900     -1.15097000      0.49263400
| 34> H        -2.34915900     -3.09576000      1.14202500
| 35> H         0.02192400     -2.45471600      1.21885300
| 36> H        -3.36878200      0.87022100     -0.11326600
| 37> H        -4.05730300     -1.42267800      0.44033700
| 38> B         1.26449900     -0.02546100      0.55323800
| 39> H         1.77671400     -1.14040800     -0.06933200
| 40> C         1.99846100      0.25456400      1.96532400
| 41> C         1.62154400     -0.15575600      3.22695000
| 42> C         2.29477100      0.51050600      4.28186900
| 43> H         0.87672200     -0.92962200      3.37196900
| 44> C         3.18117500      1.44485800      3.81583600
| 45> H         2.12659900      0.31592000      5.33381600
| 46> H         3.81494600      2.09867900      4.39929800
| 47> H         1.62131100      0.73752700     -0.30016300
| 48> B         2.59843600     -1.50111200      0.82101700
| 49> O         3.91458800     -1.36672900      0.48573300
| 50> O         2.30658900     -2.62545900      1.54984300
| 51> C         4.63313800     -2.30158900      1.32578900
| 52> C         3.53597100     -3.38385200      1.63830500
| 53> C         5.83074700     -2.82008000      0.54378100
| 54> H         6.53510700     -2.00356700      0.36766400
| 55> H         6.34785200     -3.60056500      1.11085300
| 56> H         5.53379600     -3.22754400     -0.42357200
| 57> C         5.10362000     -1.54318600      2.56675900
| 58> H         5.69862800     -0.68425300      2.24864800
| 59> H         4.26367600     -1.17124400      3.15862600
| 60> H         5.72435900     -2.18025300      3.20292000
| 61> C         3.62859600     -3.99703200      3.02758200
| 62> H         2.83537300     -4.73762700      3.15694000
| 63> H         4.59101500     -4.50097500      3.16018600
| 64> H         3.51801500     -3.23895800      3.80436100
| 65> C         3.44580100     -4.47859400      0.57559700
| 66> H         4.30831000     -5.14956000      0.61421600
| 67> H         2.54118900     -5.06516300      0.75235900
| 68> H         3.38026500     -4.04842400     -0.42732600
| 69> N        -0.86959100      1.84904700     -0.09622200
| 70> C        -1.72890400      2.59113700     -0.99317300
| 71> H        -2.65414400      2.96578200     -0.51790000
| 72> H        -1.18024500      3.46196100     -1.36638100
| 73> H        -2.00523900      1.96924900     -1.84792500
| 74> C        -0.45923500      2.66057700      1.03950500
| 75> H         0.13245900      3.51327900      0.69010500
| 76> H        -1.32568600      3.04760200      1.60515900
| 77> H         0.15635300      2.07849500      1.72498600
| 78> S         3.19524800      1.51043600      2.10425400
| 79> *
| 80>
| 81>
| 82>                          ****END OF INPUT****

CARTESIAN COORDINATES (ANGSTROEM)
---------------------------------
  C     -2.056478   -2.081670    0.887745
  C     -0.715417   -1.709099    0.934651
  C     -0.284165   -0.421332    0.595017
  C     -1.269420    0.524243    0.228420
  C     -2.615110    0.144820    0.174022
  C     -3.007069   -1.150970    0.492634
  H     -2.349159   -3.095760    1.142025
  H      0.021924   -2.454716    1.218853
  H     -3.368782    0.870221   -0.113266
  H     -4.057303   -1.422678    0.440337
  B      1.264499   -0.025461    0.553238
  H      1.776714   -1.140408   -0.069332
  C      1.998461    0.254564    1.965324
  C      1.621544   -0.155756    3.226950
  C      2.294771    0.510506    4.281869
  H      0.876722   -0.929622    3.371969
  C      3.181175    1.444858    3.815836
  H      2.126599    0.315920    5.333816
  H      3.814946    2.098679    4.399298
  H      1.621311    0.737527   -0.300163
  B      2.598436   -1.501112    0.821017
  O      3.914588   -1.366729    0.485733
  O      2.306589   -2.625459    1.549843
  C      4.633138   -2.301589    1.325789
  C      3.535971   -3.383852    1.638305
  C      5.830747   -2.820080    0.543781
  H      6.535107   -2.003567    0.367664
  H      6.347852   -3.600565    1.110853
  H      5.533796   -3.227544   -0.423572
  C      5.103620   -1.543186    2.566759
  H      5.698628   -0.684253    2.248648
  H      4.263676   -1.171244    3.158626
  H      5.724359   -2.180253    3.202920
  C      3.628596   -3.997032    3.027582
  H      2.835373   -4.737627    3.156940
  H      4.591015   -4.500975    3.160186
  H      3.518015   -3.238958    3.804361
  C      3.445801   -4.478594    0.575597
  H      4.308310   -5.149560    0.614216
  H      2.541189   -5.065163    0.752359
  H      3.380265   -4.048424   -0.427326
  N     -0.869591    1.849047   -0.096222
  C     -1.728904    2.591137   -0.993173
  H     -2.654144    2.965782   -0.517900
  H     -1.180245    3.461961   -1.366381
  H     -2.005239    1.969249   -1.847925
  C     -0.459235    2.660577    1.039505
  H      0.132459    3.513279    0.690105
  H     -1.325686    3.047602    1.605159
  H      0.156353    2.078495    1.724986
  S      3.195248    1.510436    2.104254

 Total Charge           Charge          ....    0
 Multiplicity           Mult            ....    1
 Number of Electrons    NEL             ....  184
 Basis Dimension        Dim             ....  475

ORBITAL ENERGIES
----------------

  NO   OCC          E(Eh)            E(eV)
   0   2.0000     -88.978774     -2421.2355
   1   2.0000     -19.258022      -524.0374
   2   2.0000     -19.257866      -524.0332
   3   2.0000     -14.419248      -392.3677
   4   2.0000     -10.358558      -281.8707
   5   2.0000     -10.357162      -281.8327
   6   2.0000     -10.321332      -280.8577
   7   2.0000     -10.303898      -280.3833
   8   2.0000     -10.301659      -280.3224
   9   2.0000     -10.296493      -280.1818
  10   2.0000     -10.294795      -280.1356
  11   2.0000     -10.292356      -280.0693
  12   2.0000     -10.288985      -279.9775
  13   2.0000     -10.284684      -279.8605
  14   2.0000     -10.283415      -279.8260
  15   2.0000     -10.282303      -279.7957
  16   2.0000     -10.277219      -279.6573
  17   2.0000     -10.271254      -279.4950
  18   2.0000     -10.266081      -279.3543
  19   2.0000     -10.265943      -279.3505
  20   2.0000     -10.265261      -279.3320
  21   2.0000     -10.254585      -279.0415
  22   2.0000      -8.074428      -219.7164
  23   2.0000      -6.918437      -188.2602
  24   2.0000      -6.826897      -185.7693
  25   2.0000      -6.028364      -164.0401
  26   2.0000      -6.023903      -163.9187
  27   2.0000      -6.021805      -163.8617
  28   2.0000      -1.189034       -32.3553
  29   2.0000      -1.118410       -30.4335
  30   2.0000      -1.036700       -28.2100
  31   2.0000      -0.999135       -27.1878
  32   2.0000      -0.941747       -25.6262
  33   2.0000      -0.932247       -25.3677
  34   2.0000      -0.874046       -23.7840
  35   2.0000      -0.852303       -23.1924
  36   2.0000      -0.847610       -23.0646
  37   2.0000      -0.837122       -22.7793
  38   2.0000      -0.834232       -22.7006
  39   2.0000      -0.827922       -22.5289
  40   2.0000      -0.807311       -21.9681
  41   2.0000      -0.797996       -21.7146
  42   2.0000      -0.751400       -20.4466
  43   2.0000      -0.740082       -20.1387
  44   2.0000      -0.713699       -19.4207
  45   2.0000      -0.685385       -18.6503
  46   2.0000      -0.672680       -18.3046
  47   2.0000      -0.661025       -17.9874
  48   2.0000      -0.659365       -17.9422
  49   2.0000      -0.648659       -17.6509
  50   2.0000      -0.628171       -17.0934
  51   2.0000      -0.604940       -16.4613
  52   2.0000      -0.597495       -16.2587
  53   2.0000      -0.577597       -15.7172
  54   2.0000      -0.572658       -15.5828
  55   2.0000      -0.558241       -15.1905
  56   2.0000      -0.554646       -15.0927
  57   2.0000      -0.549592       -14.9552
  58   2.0000      -0.547364       -14.8945
  59   2.0000      -0.543592       -14.7919
  60   2.0000      -0.524679       -14.2772
  61   2.0000      -0.509558       -13.8658
  62   2.0000      -0.507369       -13.8062
  63   2.0000      -0.504064       -13.7163
  64   2.0000      -0.502480       -13.6732
  65   2.0000      -0.501334       -13.6420
  66   2.0000      -0.497254       -13.5310
  67   2.0000      -0.487855       -13.2752
  68   2.0000      -0.481421       -13.1001
  69   2.0000      -0.478403       -13.0180
  70   2.0000      -0.475717       -12.9449
  71   2.0000      -0.470545       -12.8042
  72   2.0000      -0.469164       -12.7666
  73   2.0000      -0.467609       -12.7243
  74   2.0000      -0.461043       -12.5456
  75   2.0000      -0.459136       -12.4937
  76   2.0000      -0.451656       -12.2902
  77   2.0000      -0.445224       -12.1152
  78   2.0000      -0.440378       -11.9833
  79   2.0000      -0.438465       -11.9312
  80   2.0000      -0.430175       -11.7056
  81   2.0000      -0.429275       -11.6812
  82   2.0000      -0.413182       -11.2433
  83   2.0000      -0.408214       -11.1081
  84   2.0000      -0.402754       -10.9595
  85   2.0000      -0.385020       -10.4769
  86   2.0000      -0.371320       -10.1041
  87   2.0000      -0.335054        -9.1173
  88   2.0000      -0.332514        -9.0482
  89   2.0000      -0.317917        -8.6510
  90   2.0000      -0.307760        -8.3746
  91   2.0000      -0.267855        -7.2887
  92   0.0000       0.028127         0.7654
  93   0.0000       0.089193         2.4271
  94   0.0000       0.099614         2.7106
  95   0.0000       0.123851         3.3702
  96   0.0000       0.126093         3.4312

MULLIKEN ATOMIC CHARGES
-----------------------
   0 C :   -0.115536
   1 C :   -0.184799
   2 C :    0.023581
   3 C :    0.164408
   4 C :   -0.128198
   5 C :   -0.137788
   6 H :    0.106448
   7 H :    0.119072
   8 H :    0.103570
   9 H :    0.111037
  10 B :    0.062417
  11 H :    0.017668
  12 C :   -0.396760
  13 C :   -0.060973
  14 C :   -0.099375
  15 H :    0.147900
  16 C :   -0.329082
  17 H :    0.134386
  18 H :    0.164626
  19 H :   -0.016793
  20 B :    0.575864
  21 O :   -0.470135
  22 O :   -0.488725
  23 C :    0.200115
  24 C :    0.216235
  25 C :   -0.354074
  26 H :    0.137175
  27 H :    0.116582
  28 H :    0.132706
  29 C :   -0.344202
  30 H :    0.138568
  31 H :    0.128428
  32 H :    0.113746
  33 C :   -0.351704
  34 H :    0.132975
  35 H :    0.118062
  36 H :    0.134262
  37 C :   -0.352728
  38 H :    0.118539
  39 H :    0.136515
  40 H :    0.132332
  41 N :   -0.451220
  42 C :   -0.202067
  43 H :    0.089889
  44 H :    0.123384
  45 H :    0.133454
  46 C :   -0.193493
  47 H :    0.121090
  48 H :    0.093652
  49 H :    0.134844
  50 S :    0.294124
Sum of atomic charges:    0.0000000

LOEWDIN ATOMIC CHARGES
----------------------
   0 C :   -0.100096
   1 C :   -0.081459
   2 C :   -0.049792
   3 C :    0.038767
   4 C :   -0.109980
   5 C :   -0.078788
   6 H :    0.073431
   7 H :    0.078915
   8 H :    0.075319
   9 H :    0.075087
  10 B :   -0.243350
  11 H :    0.154363
  12 C :   -0.196085
  13 C :   -0.061633
  14 C :   -0.126046
  15 H :    0.093610
  16 C :   -0.222681
  17 H :    0.085460
  18 H :    0.095826
  19 H :    0.028928
  20 B :   -0.047056
  21 O :   -0.104734
  22 O :   -0.121122
  23 C :    0.092904
  24 C :    0.092654
  25 C :   -0.203816
  26 H :    0.085447
  27 H :    0.077062
  28 H :    0.081978
  29 C :   -0.205688
  30 H :    0.085849
  31 H :    0.083980
  32 H :    0.075552
  33 C :   -0.204189
  34 H :    0.083492
  35 H :    0.077637
  36 H :    0.083128
  37 C :   -0.206269
  38 H :    0.076748
  39 H :    0.084377
  40 H :    0.080957
  41 N :   -0.133230
  42 C :   -0.127955
  43 H :    0.046683
  44 H :    0.073739
  45 H :    0.078437
  46 C :   -0.117283
  47 H :    0.070804
  48 H :    0.050719
  49 H :    0.084511
  50 S :    0.374892

  Mayer bond orders larger than 0.100000
B(  0-C ,  1-C ) :   1.4253 B(  0-C ,  5-C ) :   1.4575 B(  0-C ,  6-H ) :   0.9511
B(  1-C ,  2-C ) :   1.4071 B(  1-C ,  7-H ) :   0.9257 B(  2-C ,  3-C ) :   1.4049
B(  2-C , 10-B ) :   1.0001 B(  3-C ,  4-C ) :   1.4065 B(  3-C , 41-N ) :   0.9876
B(  4-C ,  5-C ) :   1.4295 B(  4-C ,  8-H ) :   0.9412 B(  5-C ,  9-H ) :   0.9482
B( 10-B , 11-H ) :   0.3688 B( 10-B , 12-C ) :   0.7848 B( 10-B , 19-H ) :   0.9393
B( 10-B , 20-B ) :   0.3018 B( 11-H , 20-B ) :   0.5691 B( 12-C , 13-C ) :   1.5320
B( 12-C , 16-C ) :   0.1021 B( 12-C , 20-B ) :   0.1933 B( 12-C , 50-S ) :   1.1080
B( 13-C , 14-C ) :   1.3115 B( 13-C , 15-H ) :   0.9347 B( 14-C , 16-C ) :   1.5887
B( 14-C , 17-H ) :   0.9460 B( 16-C , 18-H ) :   0.9361 B( 16-C , 50-S ) :   1.1814
B( 20-B , 21-O ) :   1.1362 B( 20-B , 22-O ) :   1.0897 B( 21-O , 23-C ) :   0.8644
B( 22-O , 24-C ) :   0.8507 B( 23-C , 24-C ) :   0.9574 B( 23-C , 25-C ) :   1.0074
B( 23-C , 29-C ) :   0.9927 B( 24-C , 33-C ) :   1.0062 B( 24-C , 37-C ) :   0.9941
B( 25-C , 26-H ) :   0.9571 B( 25-C , 27-H ) :   0.9555 B( 25-C , 28-H ) :   0.9542
B( 29-C , 30-H ) :   0.9540 B( 29-C , 31-H ) :   0.9461 B( 29-C , 32-H ) :   0.9530
B( 33-C , 34-H ) :   0.9574 B( 33-C , 35-H ) :   0.9554 B( 33-C , 36-H ) :   0.9539
B( 37-C , 38-H ) :   0.9530 B( 37-C , 39-H ) :   0.9555 B( 37-C , 40-H ) :   0.9569
B( 41-N , 42-C ) :   0.9822 B( 41-N , 46-C ) :   0.9578 B( 42-C , 43-H ) :   0.9402
B( 42-C , 44-H ) :   0.9629 B( 42-C , 45-H ) :   0.9626 B( 46-C , 47-H ) :   0.9623
B( 46-C , 48-H ) :   0.9488 B( 46-C , 49-H ) :   0.9536

Dispersion correction           -0.031360346
FINAL SINGLE POINT ENERGY     -1355.103150232789
Dispersion correction             ... done (  0.1 sec)

DIPOLE MOMENT
-------------

Method             : SCF
Type of density    : Electron Density
Multiplicity       :   1
Irrep              :   0
Energy             : -1355.0717898865659663 Eh
Basis              : AO
                                X                 Y                 Z
Electronic contribution:     -3.123428818       8.548388737       0.210869187
Nuclear contribution   :      4.120041290      -9.202067065       0.722270111
                        -----------------------------------------
Total Dipole Moment    :      0.996612472      -0.653678328       0.933139298
                        -----------------------------------------
Magnitude (a.u.)       :      1.513697700
Magnitude (Debye)      :      3.847513785

VIBRATIONAL FREQUENCIES
-----------------------

Scaling factor for frequencies =  1.000000000  (already applied!)

     0:       0.00 cm**-1
     1:       0.00 cm**-1
     2:       0.00 cm**-1
     3:       0.00 cm**-1
     4:       0.00 cm**-1
     5:       0.00 cm**-1
     6:     -90.47 cm**-1  ***imaginary mode***
     7:     -10.00 cm**-1  ***imaginary mode***
     8:      43.07 cm**-1
     9:      45.41 cm**-1
    10:      58.24 cm**-1
    11:      70.99 cm**-1
    12:      81.84 cm**-1
    13:      91.59 cm**-1
    14:     107.11 cm**-1
    15:     121.10 cm**-1
    16:     137.12 cm**-1
    17:     158.26 cm**-1
    18:     173.81 cm**-1
    19:     190.29 cm**-1
    20:     215.59 cm**-1
    21:     230.99 cm**-1
    22:     232.83 cm**-1
    23:     249.21 cm**-1
    24:     273.29 cm**-1
    25:     288.66 cm**-1
    26:     297.35 cm**-1
    27:     302.46 cm**-1
    28:     314.79 cm**-1
    29:     335.87 cm**-1
    30:     340.23 cm**-1
    31:     347.06 cm**-1
    32:     369.32 cm**-1
    33:     374.89 cm**-1
    34:     380.15 cm**-1
    35:     396.63 cm**-1
    36:     438.10 cm**-1
    37:     464.74 cm**-1
    38:     473.95 cm**-1
    39:     498.37 cm**-1
    40:     527.54 cm**-1
    41:     538.95 cm**-1
    42:     542.57 cm**-1
    43:     557.36 cm**-1
    44:     579.47 cm**-1
    45:     588.12 cm**-1
    46:     595.83 cm**-1
    47:     614.21 cm**-1
    48:     616.19 cm**-1
    49:     681.90 cm**-1
    50:     711.73 cm**-1
    51:     742.28 cm**-1
    52:     746.70 cm**-1
    53:     762.33 cm**-1
    54:     767.63 cm**-1
    55:     778.03 cm**-1
    56:     788.20 cm**-1
    57:     801.13 cm**-1
    58:     828.25 cm**-1
    59:     883.93 cm**-1
    60:     886.12 cm**-1
    61:     892.83 cm**-1
    62:     897.84 cm**-1
    63:     901.82 cm**-1
    64:     948.85 cm**-1
    65:     951.31 cm**-1
    66:     952.82 cm**-1
    67:     976.10 cm**-1
    68:     986.65 cm**-1
    69:     996.46 cm**-1
    70:     997.88 cm**-1
    71:    1002.44 cm**-1
    72:    1009.22 cm**-1
    73:    1021.29 cm**-1
    74:    1029.70 cm**-1
    75:    1051.57 cm**-1
    76:    1078.82 cm**-1
    77:    1092.45 cm**-1
    78:    1098.33 cm**-1
    79:    1110.34 cm**-1
    80:    1124.56 cm**-1
    81:    1129.90 cm**-1
    82:    1153.70 cm**-1
    83:    1161.52 cm**-1
    84:    1180.16 cm**-1
    85:    1185.88 cm**-1
    86:    1195.33 cm**-1
    87:    1200.83 cm**-1
    88:    1209.70 cm**-1
    89:    1214.21 cm**-1
    90:    1235.97 cm**-1
    91:    1266.70 cm**-1
    92:    1267.67 cm**-1
    93:    1272.73 cm**-1
    94:    1293.53 cm**-1
    95:    1321.55 cm**-1
    96:    1326.51 cm**-1
    97:    1340.93 cm**-1
    98:    1386.20 cm**-1
    99:    1394.24 cm**-1
   100:    1399.83 cm**-1
   101:    1423.50 cm**-1
   102:    1424.99 cm**-1
   103:    1432.79 cm**-1
   104:    1442.71 cm**-1
   105:    1458.43 cm**-1
   106:    1483.46 cm**-1
   107:    1486.19 cm**-1
   108:    1486.99 cm**-1
   109:    1494.21 cm**-1
   110:    1495.56 cm**-1
   111:    1496.74 cm**-1
   112:    1500.87 cm**-1
   113:    1501.83 cm**-1
   114:    1510.07 cm**-1
   115:    1516.67 cm**-1
   116:    1517.65 cm**-1
   117:    1520.72 cm**-1
   118:    1523.43 cm**-1
   119:    1537.97 cm**-1
   120:    1539.37 cm**-1
   121:    1556.01 cm**-1
   122:    1591.84 cm**-1
   123:    1661.84 cm**-1
   124:    1690.14 cm**-1
   125:    1754.94 cm**-1
   126:    2212.31 cm**-1
   127:    2628.98 cm**-1
   128:    2976.31 cm**-1
   129:    2985.51 cm**-1
   130:    3082.44 cm**-1
   131:    3085.76 cm**-1
   132:    3086.36 cm**-1
   133:    3090.35 cm**-1
   134:    3104.58 cm**-1
   135:    3109.33 cm**-1
   136:    3166.71 cm**-1
   137:    3167.77 cm**-1
   138:    3168.77 cm**-1
   139:    3174.43 cm**-1
   140:    3176.88 cm**-1
   141:    3178.74 cm**-1
   142:    3183.88 cm**-1
   143:    3192.01 cm**-1
   144:    3193.96 cm**-1
   145:    3200.00 cm**-1
   146:    3210.77 cm**-1
   147:    3221.55 cm**-1
   148:    3234.12 cm**-1
   149:    3243.12 cm**-1
   150:    3255.70 cm**-1
   151:    3269.45 cm**-1
   152:    3294.90 cm**-1

IR SPECTRUM
-----------

 Mode   freq       eps      Int      T**2         TX        TY        TZ
       cm**-1   L/(mol*cm) km/mol    a.u.
----------------------------------------------------------------------------
  8:     43.07   0.000062    0.31  0.000450  (-0.000155 -0.021208  0.000801)
  9:     45.41   0.000032    0.16  0.000220  (-0.010651 -0.010220  0.001280)
 10:     58.24   0.000276    1.40  0.001481  (-0.001494 -0.023468 -0.030466)
 11:     70.99   0.000197    1.00  0.000866  ( 0.023107  0.017664 -0.004430)
 12:     81.84   0.000369    1.86  0.001405  (-0.001591  0.034472  0.014645)
 13:     91.59   0.000088    0.45  0.000300  (-0.015447  0.004054  0.006722)
 14:    107.11   0.000195    0.98  0.000567  ( 0.006209 -0.021987  0.006722)
 15:    121.10   0.000582    2.94  0.001500  ( 0.022230 -0.018495 -0.025770)
 16:    137.12   0.000006    0.03  0.000014  (-0.001496  0.002562  0.002239)
 17:    158.26   0.001072    5.42  0.002113  (-0.022998  0.037119  0.014374)
 18:    173.81   0.000173    0.88  0.000311  ( 0.008483 -0.013682 -0.007206)
 19:    190.29   0.000884    4.47  0.001450  (-0.012326  0.036020 -0.000573)
 20:    215.59   0.000045    0.23  0.000065  (-0.003218  0.007361  0.000096)
 21:    230.99   0.000383    1.94  0.000518  (-0.010662  0.013322  0.015064)
 22:    232.83   0.000542    2.74  0.000726  (-0.009158  0.015520  0.020041)
 23:    249.21   0.000003    0.01  0.000004  ( 0.001829  0.000190 -0.000404)
 24:    273.29   0.000138    0.70  0.000158  (-0.000550  0.012517  0.000979)
 25:    288.66   0.000014    0.07  0.000015  (-0.003426 -0.001236  0.001425)
 26:    297.35   0.000284    1.43  0.000298  ( 0.010647  0.013556  0.000733)
 27:    302.46   0.000027    0.14  0.000028  ( 0.000210 -0.004394  0.002993)
 28:    314.79   0.000010    0.05  0.000010  (-0.001728  0.000677  0.002636)
 29:    335.87   0.000067    0.34  0.000062  (-0.007502 -0.001575  0.001761)
 30:    340.23   0.000996    5.03  0.000914  ( 0.007056  0.021002  0.020565)
 31:    347.06   0.001727    8.73  0.001553  ( 0.007908 -0.029449 -0.024957)
 32:    369.32   0.000922    4.66  0.000779  ( 0.001186  0.021573  0.017664)
 33:    374.89   0.000524    2.65  0.000436  ( 0.014611  0.013787  0.005703)
 34:    380.15   0.000242    1.22  0.000199  ( 0.010283  0.003963  0.008792)
 35:    396.63   0.000219    1.11  0.000172  (-0.009027  0.007935  0.005292)
 36:    438.10   0.001361    6.88  0.000969  (-0.022427  0.021341 -0.003305)
 37:    464.74   0.004672   23.61  0.003137  ( 0.004593 -0.051568 -0.021369)
 38:    473.95   0.000204    1.03  0.000134  ( 0.002719  0.003027  0.010844)
 39:    498.37   0.001898    9.59  0.001189  ( 0.021270 -0.017888 -0.020401)
 40:    527.54   0.000550    2.78  0.000326  (-0.009336  0.002995 -0.015146)
 41:    538.95   0.001539    7.78  0.000891  ( 0.018935 -0.009974 -0.020814)
 42:    542.57   0.002355   11.90  0.001354  ( 0.035623 -0.009220 -0.000635)
 43:    557.36   0.017027   86.05  0.009533  ( 0.013982 -0.071003 -0.065545)
 44:    579.47   0.000539    2.72  0.000290  ( 0.009171 -0.010062  0.010230)
 45:    588.12   0.001203    6.08  0.000638  ( 0.018268  0.000246 -0.017450)
 46:    595.83   0.000227    1.15  0.000119  ( 0.003229 -0.010404  0.000638)
 47:    614.21   0.005520   27.89  0.002804  (-0.044156  0.029224 -0.000782)
 48:    616.19   0.004678   23.64  0.002369  (-0.031752  0.036246 -0.006857)
 49:    681.90   0.002149   10.86  0.000984  ( 0.021453 -0.022845 -0.001244)
 50:    711.73   0.003708   18.74  0.001626  ( 0.027741 -0.011502  0.026910)
 51:    742.28   0.000010    0.05  0.000004  ( 0.000563 -0.001447 -0.001280)
 52:    746.70   0.015014   75.87  0.006275  (-0.057413  0.054141  0.006873)
 53:    762.33   0.005601   28.31  0.002293  (-0.028967  0.030617  0.022724)
 54:    767.63   0.000471    2.38  0.000191  (-0.001361 -0.013555  0.002400)
 55:    778.03   0.006660   33.66  0.002671  (-0.021667  0.030220  0.035898)
 56:    788.20   0.003111   15.72  0.001232  (-0.022119  0.017366 -0.021000)
 57:    801.13   0.001225    6.19  0.000477  (-0.001275  0.011794  0.018340)
 58:    828.25   0.008267   41.78  0.003115  ( 0.041082 -0.028750 -0.024504)
 59:    883.93   0.004279   21.63  0.001511  ( 0.012232 -0.036208  0.007084)
 60:    886.12   0.001574    7.96  0.000554  ( 0.010280  0.020758  0.004220)
 61:    892.83   0.004450   22.49  0.001555  ( 0.038423 -0.008510 -0.002561)
 62:    897.84   0.003106   15.70  0.001079  (-0.024212  0.022160  0.001488)
 63:    901.82   0.001620    8.18  0.000560  ( 0.011352 -0.017384  0.011373)
 64:    948.85   0.000096    0.48  0.000031  (-0.000672 -0.002247 -0.005096)
 65:    951.31   0.000089    0.45  0.000029  (-0.002809  0.002729  0.003728)
 66:    952.82   0.000092    0.46  0.000030  ( 0.001756 -0.001645  0.004920)
 67:    976.10   0.000370    1.87  0.000118  ( 0.009009 -0.001226  0.005975)
 68:    986.65   0.000942    4.76  0.000298  (-0.007680  0.008513 -0.012901)
 69:    996.46   0.003561   18.00  0.001115  (-0.023354  0.023607 -0.003537)
 70:    997.88   0.006224   31.45  0.001946  (-0.024242  0.036437  0.005586)
 71:   1002.44   0.002663   13.46  0.000829  (-0.025893 -0.009473  0.008289)
 72:   1009.22   0.000101    0.51  0.000031  (-0.001496  0.004288  0.003241)
 73:   1021.29   0.000123    0.62  0.000038  (-0.005787  0.002032  0.000242)
 74:   1029.70   0.000006    0.03  0.000002  (-0.001062  0.000523 -0.000739)
 75:   1051.57   0.009994   50.51  0.002966  (-0.041791  0.034886  0.001494)
 76:   1078.82   0.006989   35.32  0.002022  ( 0.016434  0.015816  0.038749)
 77:   1092.45   0.001025    5.18  0.000293  (-0.012269 -0.002472 -0.011674)
 78:   1098.33   0.001435    7.25  0.000408  (-0.007365 -0.015890  0.010045)
 79:   1110.34   0.000210    1.06  0.000059  ( 0.004650 -0.006085  0.000559)
 80:   1124.56   0.002622   13.25  0.000728  ( 0.013432  0.011881 -0.020150)
 81:   1129.90   0.000825    4.17  0.000228  ( 0.007489  0.012660  0.003391)
 82:   1153.70   0.018182   91.88  0.004918  (-0.060558  0.022745 -0.027083)
 83:   1161.52   0.007607   38.44  0.002044  (-0.015620  0.041962  0.006252)
 84:   1180.16   0.117888  595.76  0.031172  (-0.110535  0.137396 -0.008753)
 85:   1185.88   0.030496  154.12  0.008025  (-0.063617  0.060480  0.017894)
 86:   1195.33   0.000542    2.74  0.000141  ( 0.011743 -0.000682 -0.001737)
 87:   1200.83   0.003600   18.19  0.000936  ( 0.002470  0.028909 -0.009680)
 88:   1209.70   0.008540   43.16  0.002203  ( 0.008922 -0.040999 -0.021038)
 89:   1214.21   0.000750    3.79  0.000193  (-0.007853 -0.003289 -0.010970)
 90:   1235.97   0.011741   59.33  0.002964  (-0.032409 -0.027765 -0.033811)
 91:   1266.70   0.003999   20.21  0.000985  ( 0.022192  0.017339 -0.013856)
 92:   1267.67   0.000863    4.36  0.000212  ( 0.008368  0.001975  0.011770)
 93:   1272.73   0.003571   18.04  0.000875  (-0.006150 -0.000490 -0.028938)
 94:   1293.53   0.000012    0.06  0.000003  ( 0.000649 -0.000803 -0.001359)
 95:   1321.55   0.002176   11.00  0.000514  ( 0.014163  0.017673 -0.000941)
 96:   1326.51   0.000165    0.83  0.000039  ( 0.005979 -0.000517  0.001674)
 97:   1340.93   0.003697   18.68  0.000860  ( 0.027004  0.003067  0.011036)
 98:   1386.20   0.006189   31.28  0.001393  (-0.014304  0.034477  0.000330)
 99:   1394.24   0.026583  134.34  0.005950  (-0.057260 -0.043247  0.028300)
100:   1399.83   0.001161    5.87  0.000259  ( 0.008899  0.010570  0.008234)
101:   1423.50   0.005698   28.80  0.001249  (-0.005829 -0.018128 -0.029776)
102:   1424.99   0.000342    1.73  0.000075  ( 0.007076 -0.004572 -0.001996)
103:   1432.79   0.004541   22.95  0.000989  ( 0.020042  0.021620 -0.010956)
104:   1442.71   0.004429   22.38  0.000958  ( 0.021496 -0.020715  0.008178)
105:   1458.43   0.000216    1.09  0.000046  ( 0.004293  0.004104  0.003320)
106:   1483.46   0.004757   24.04  0.001001  ( 0.001796  0.031475  0.002595)
107:   1486.19   0.000073    0.37  0.000015  (-0.003142  0.002274  0.000537)
108:   1486.99   0.005572   28.16  0.001169  ( 0.020892  0.024898  0.010624)
109:   1494.21   0.002535   12.81  0.000529  ( 0.015496  0.001721  0.016919)
110:   1495.56   0.000195    0.98  0.000041  ( 0.000442  0.005783  0.002642)
111:   1496.74   0.000662    3.35  0.000138  (-0.011449 -0.000281  0.002637)
112:   1500.87   0.006274   31.70  0.001304  (-0.003666  0.032658 -0.014981)
113:   1501.83   0.001213    6.13  0.000252  (-0.008881 -0.003403  0.012715)
114:   1510.07   0.003137   15.86  0.000648  (-0.016469 -0.017252  0.008916)
115:   1516.67   0.001053    5.32  0.000217  (-0.002028 -0.013984 -0.004120)
116:   1517.65   0.001089    5.50  0.000224  ( 0.000261  0.001530  0.014883)
117:   1520.72   0.000501    2.53  0.000103  (-0.008562 -0.001438  0.005229)
118:   1523.43   0.000590    2.98  0.000121  (-0.007716  0.004555 -0.006365)
119:   1537.97   0.000096    0.48  0.000019  (-0.000075  0.001525  0.004130)
120:   1539.37   0.001387    7.01  0.000281  (-0.012604  0.008131 -0.007498)
121:   1556.01   0.015407   77.86  0.003090  ( 0.007459 -0.054220  0.009724)
122:   1591.84   0.000795    4.02  0.000156  (-0.000175 -0.002315 -0.012269)
123:   1661.84   0.004513   22.81  0.000847  ( 0.021558 -0.019338  0.002960)
124:   1690.14   0.004310   21.78  0.000796  (-0.010414 -0.024657  0.008914)
125:   1754.94   0.053118  268.44  0.009446  ( 0.039924 -0.077069 -0.043725)
126:   2212.31   0.059871  302.56  0.008445  (-0.073907  0.053495 -0.011015)
127:   2628.98   0.010753   54.34  0.001276  ( 0.015411  0.017328 -0.027178)
128:   2976.31   0.014535   73.45  0.001524  (-0.031404  0.020380 -0.011062)
129:   2985.51   0.023716  119.85  0.002479  ( 0.023829 -0.038150 -0.021347)
130:   3082.44   0.001105    5.59  0.000112  (-0.003020 -0.002686 -0.009776)
131:   3085.76   0.002807   14.18  0.000284  (-0.003488  0.008288  0.014248)
132:   3086.36   0.001436    7.26  0.000145  (-0.005510 -0.009764  0.004421)
133:   3090.35   0.005181   26.18  0.000523  (-0.017497  0.013180 -0.006578)
134:   3104.58   0.008696   43.95  0.000874  ( 0.009345  0.016254 -0.022861)
135:   3109.33   0.005614   28.37  0.000563  (-0.017823 -0.015261  0.003596)
136:   3166.71   0.003930   19.86  0.000387  (-0.004911 -0.016893 -0.008821)
137:   3167.77   0.000491    2.48  0.000048  (-0.006515 -0.002216  0.000993)
138:   3168.77   0.001842    9.31  0.000181  (-0.010267 -0.006685  0.005594)
139:   3174.43   0.001852    9.36  0.000182  (-0.004109  0.009784 -0.008331)
140:   3176.88   0.004313   21.79  0.000424  (-0.005189  0.017617 -0.009292)
141:   3178.74   0.006167   31.17  0.000605  (-0.024156  0.004683 -0.000143)
142:   3183.88   0.003765   19.03  0.000369  ( 0.009446  0.015028 -0.007350)
143:   3192.01   0.002783   14.06  0.000272  ( 0.004045 -0.013607 -0.008397)
144:   3193.96   0.002731   13.80  0.000267  (-0.007784 -0.006137 -0.012984)
145:   3200.00   0.001555    7.86  0.000152  ( 0.000657 -0.010165  0.006920)
146:   3210.77   0.000417    2.11  0.000041  ( 0.006235 -0.000994  0.000830)
147:   3221.55   0.001228    6.20  0.000119  ( 0.008523  0.006764 -0.000727)
148:   3234.12   0.004561   23.05  0.000440  ( 0.002752  0.020138 -0.005196)
149:   3243.12   0.005380   27.19  0.000518  (-0.022278 -0.002731 -0.003732)
150:   3255.70   0.000660    3.33  0.000063  (-0.002002 -0.002975 -0.007098)
151:   3269.45   0.000629    3.18  0.000060  ( 0.000861  0.000737 -0.007664)
152:   3294.90   0.000186    0.94  0.000018  ( 0.000330  0.000763 -0.004110)

--------------------------
THERMOCHEMISTRY AT 298.15K
--------------------------

Temperature         ...   298.15 K
Pressure            ...     1.00 atm
Total Mass          ...   343.10 AMU
Quasi RRHO          ...     True
Cut-Off Frequency   ...     1.00 cm^-1

Throughout the following assumptions are being made:
  (1) The electronic state is orbitally nondegenerate
  (2) There are no thermally accessible electronically excited states
  (3) Hindered rotations indicated by low frequency modes are not
      treated as such but are treated as vibrations and this may
      cause some error
  (4) All equations used are the standard statistical mechanics
      equations for an ideal gas
  (5) All vibrations are strictly harmonic

freq.      43.07  E(vib)   ...       0.53
freq.      45.41  E(vib)   ...       0.53
freq.      58.24  E(vib)   ...       0.51
freq.      70.99  E(vib)   ...       0.50
freq.      81.84  E(vib)   ...       0.48
freq.      91.59  E(vib)   ...       0.47
freq.     107.11  E(vib)   ...       0.45
freq.     121.10  E(vib)   ...       0.44
freq.     137.12  E(vib)   ...       0.42
freq.     158.26  E(vib)   ...       0.39
freq.     173.81  E(vib)   ...       0.38
freq.     190.29  E(vib)   ...       0.36
freq.     215.59  E(vib)   ...       0.34
freq.     230.99  E(vib)   ...       0.32
freq.     232.83  E(vib)   ...       0.32
freq.     249.21  E(vib)   ...       0.31
freq.     273.29  E(vib)   ...       0.29
freq.     288.66  E(vib)   ...       0.27
freq.     297.35  E(vib)   ...       0.27
freq.     302.46  E(vib)   ...       0.26
freq.     314.79  E(vib)   ...       0.25
freq.     335.87  E(vib)   ...       0.24
freq.     340.23  E(vib)   ...       0.23
freq.     347.06  E(vib)   ...       0.23
freq.     369.32  E(vib)   ...       0.21
freq.     374.89  E(vib)   ...       0.21
freq.     380.15  E(vib)   ...       0.21
freq.     396.63  E(vib)   ...       0.20
freq.     438.10  E(vib)   ...       0.17
freq.     464.74  E(vib)   ...       0.16
freq.     473.95  E(vib)   ...       0.15
freq.     498.37  E(vib)   ...       0.14
freq.     527.54  E(vib)   ...       0.13
freq.     538.95  E(vib)   ...       0.12
freq.     542.57  E(vib)   ...       0.12
freq.     557.36  E(vib)   ...       0.12
freq.     579.47  E(vib)   ...       0.11
freq.     588.12  E(vib)   ...       0.10
freq.     595.83  E(vib)   ...       0.10
freq.     614.21  E(vib)   ...       0.10
freq.     616.19  E(vib)   ...       0.09
freq.     681.90  E(vib)   ...       0.08
freq.     711.73  E(vib)   ...       0.07
freq.     742.28  E(vib)   ...       0.06
freq.     746.70  E(vib)   ...       0.06
freq.     762.33  E(vib)   ...       0.06
freq.     767.63  E(vib)   ...       0.06
freq.     778.03  E(vib)   ...       0.05
freq.     788.20  E(vib)   ...       0.05
freq.     801.13  E(vib)   ...       0.05
freq.     828.25  E(vib)   ...       0.04
freq.     883.93  E(vib)   ...       0.04
freq.     886.12  E(vib)   ...       0.04
freq.     892.83  E(vib)   ...       0.03
freq.     897.84  E(vib)   ...       0.03
freq.     901.82  E(vib)   ...       0.03
freq.     948.85  E(vib)   ...       0.03
freq.     951.31  E(vib)   ...       0.03
freq.     952.82  E(vib)   ...       0.03
freq.     976.10  E(vib)   ...       0.03
freq.     986.65  E(vib)   ...       0.02
freq.     996.46  E(vib)   ...       0.02
freq.     997.88  E(vib)   ...       0.02
freq.    1002.44  E(vib)   ...       0.02
freq.    1009.22  E(vib)   ...       0.02
freq.    1021.29  E(vib)   ...       0.02
freq.    1029.70  E(vib)   ...       0.02
freq.    1051.57  E(vib)   ...       0.02
freq.    1078.82  E(vib)   ...       0.02
freq.    1092.45  E(vib)   ...       0.02
freq.    1098.33  E(vib)   ...       0.02
freq.    1110.34  E(vib)   ...       0.02
freq.    1124.56  E(vib)   ...       0.01
freq.    1129.90  E(vib)   ...       0.01
freq.    1153.70  E(vib)   ...       0.01
freq.    1161.52  E(vib)   ...       0.01
freq.    1180.16  E(vib)   ...       0.01
freq.    1185.88  E(vib)   ...       0.01
freq.    1195.33  E(vib)   ...       0.01
freq.    1200.83  E(vib)   ...       0.01
freq.    1209.70  E(vib)   ...       0.01
freq.    1214.21  E(vib)   ...       0.01
freq.    1235.97  E(vib)   ...       0.01
freq.    1266.70  E(vib)   ...       0.01
freq.    1267.67  E(vib)   ...       0.01
freq.    1272.73  E(vib)   ...       0.01
freq.    1293.53  E(vib)   ...       0.01
freq.    1321.55  E(vib)   ...       0.01
freq.    1326.51  E(vib)   ...       0.01
freq.    1340.93  E(vib)   ...       0.01
freq.    1386.20  E(vib)   ...       0.00
freq.    1394.24  E(vib)   ...       0.00
freq.    1399.83  E(vib)   ...       0.00
freq.    1423.50  E(vib)   ...       0.00
freq.    1424.99  E(vib)   ...       0.00
freq.    1432.79  E(vib)   ...       0.00
freq.    1442.71  E(vib)   ...       0.00
freq.    1458.43  E(vib)   ...       0.00
freq.    1483.46  E(vib)   ...       0.00
freq.    1486.19  E(vib)   ...       0.00
freq.    1486.99  E(vib)   ...       0.00
freq.    1494.21  E(vib)   ...       0.00
freq.    1495.56  E(vib)   ...       0.00
freq.    1496.74  E(vib)   ...       0.00
freq.    1500.87  E(vib)   ...       0.00
freq.    1501.83  E(vib)   ...       0.00
freq.    1510.07  E(vib)   ...       0.00
freq.    1516.67  E(vib)   ...       0.00
freq.    1517.65  E(vib)   ...       0.00
freq.    1520.72  E(vib)   ...       0.00
freq.    1523.43  E(vib)   ...       0.00
freq.    1537.97  E(vib)   ...       0.00
freq.    1539.37  E(vib)   ...       0.00
freq.    1556.01  E(vib)   ...       0.00
freq.    1591.84  E(vib)   ...       0.00
freq.    1661.84  E(vib)   ...       0.00
freq.    1690.14  E(vib)   ...       0.00
freq.    1754.94  E(vib)   ...       0.00
freq.    2212.31  E(vib)   ...       0.00
freq.    2628.98  E(vib)   ...       0.00
freq.    2976.31  E(vib)   ...       0.00
freq.    2985.51  E(vib)   ...       0.00
freq.    3082.44  E(vib)   ...       0.00
freq.    3085.76  E(vib)   ...       0.00
freq.    3086.36  E(vib)   ...       0.00
freq.    3090.35  E(vib)   ...       0.00
freq.    3104.58  E(vib)   ...       0.00
freq.    3109.33  E(vib)   ...       0.00
freq.    3166.71  E(vib)   ...       0.00
freq.    3167.77  E(vib)   ...       0.00
freq.    3168.77  E(vib)   ...       0.00
freq.    3174.43  E(vib)   ...       0.00
freq.    3176.88  E(vib)   ...       0.00
freq.    3178.74  E(vib)   ...       0.00
freq.    3183.88  E(vib)   ...       0.00
freq.    3192.01  E(vib)   ...       0.00
freq.    3193.96  E(vib)   ...       0.00
freq.    3200.00  E(vib)   ...       0.00
freq.    3210.77  E(vib)   ...       0.00
freq.    3221.55  E(vib)   ...       0.00
freq.    3234.12  E(vib)   ...       0.00
freq.    3243.12  E(vib)   ...       0.00

Rotational constants in cm-1:     0.011526     0.005401     0.004414

                      ***********************HURRAY********************
                      ***********************HURRAY********************
                             ****ORCA TERMINATED NORMALLY****
TOTAL RUN TIME: 0 days 3 hours 3 minutes 44 seconds 580 msec
