                         Program Version 6.1.0  -  RELEASE   -
|  1> # Automatically generated ORCA input
|  2>
|  3> # Number of cores
|  4> %pal nprocs 8 end
|  5> # RAM per core
|  6> %maxcore 3840
|  7>
|  8> ! wB97X-D3
|  9> ! 6-31+G**
| 10> ! TightSCF
| 11> ! OptTS
| 12> ! Freq
| 13> ! NoSym
| 14>
| 15> %geom
| 16>   Calc_Hess true
| 17> end
| 18> %Output
| 19>   JSONPropFile True
| 20> End
| 21>
| 22>
| 23> *xyz 0 1
| 24> C        -2.23494600     -1.44824400      0.97690300
| 25> C        -1.07094800     -0.72540600      0.63015000
| 26> C        -0.02669200     -1.43320700      0.02757900
| 27> C        -0.09926900     -2.80246400     -0.22444300
| 28> C        -1.24558300     -3.49625200      0.13450300
| 29> C        -2.30962500     -2.82006800      0.72892800
| 30> H         0.88674100     -0.89680500     -0.21550800
| 31> H         0.73793100     -3.32012800     -0.68245600
| 32> H        -1.32365800     -4.56412700     -0.04787800
| 33> H        -3.20488100     -3.37229400      0.99636300
| 34> N        -3.30028800     -0.75640700      1.62935200
| 35> B        -0.87051000      0.81403000      0.96092400
| 36> H         1.94202100      3.87821500     -0.00484800
| 37> H         3.52011700      3.08684900     -0.18651500
| 38> H         2.02499000      2.13346700     -0.27388700
| 39> C         4.10277000      0.76091500      1.23660200
| 40> H         4.99242000      1.39511000      1.16824800
| 41> H         4.40962500     -0.21763000      1.61472700
| 42> H         3.69004200      0.62348700      0.23607300
| 43> C         3.60050900      1.35136000      3.61734600
| 44> H         3.75986900      0.31196600      3.91458500
| 45> H         4.54848300      1.88825400      3.71205600
| 46> H         2.87551500      1.79430800      4.30579600
| 47> C        -0.56853000      0.98463600      2.87601700
| 48> C        -0.69781700     -0.22387100      3.56453900
| 49> C        -1.63249200     -0.20703900      4.60713400
| 50> H        -1.74806900      1.61281700      0.80887900
| 51> H         0.17620500      1.24351800      0.51534300
| 52> C         2.54872100      2.78837100      1.74157800
| 53> C         3.07798200      1.37488200      2.17971000
| 54> O         1.18545100      2.76271500      2.21329000
| 55> O         1.88496100      0.56713700      2.15675800
| 56> B         0.81869500      1.43771700      2.25810700
| 57> C         3.26051100      3.96438600      2.39504500
| 58> H         2.83279800      4.90100900      2.02862200
| 59> H         3.15086300      3.94276600      3.48030500
| 60> H         4.32665800      3.95510500      2.14702400
| 61> C         2.51263800      2.97498300      0.22399200
| 62> H        -0.11680700     -1.09227400      3.27755500
| 63> C        -2.22153200      1.03210500      4.73611200
| 64> H        -1.87656000     -1.05677500      5.23114400
| 65> H        -2.98493100      1.31622500      5.44873800
| 66> S        -1.64065500      2.15773800      3.60861000
| 67> C        -4.12798900      0.04105900      0.73540100
| 68> H        -4.79099300     -0.58709400      0.11435400
| 69> H        -4.75157000      0.72097200      1.32554100
| 70> H        -3.50137000      0.63996600      0.07599900
| 71> C        -4.11474000     -1.54206800      2.53242400
| 72> H        -4.69543900     -0.86255600      3.16577800
| 73> H        -4.83179900     -2.21188300      2.02376600
| 74> H        -3.47565400     -2.14842600      3.17918200
| 75> *
| 76>
| 77>
| 78>                          ****END OF INPUT****
 Total Charge           Charge          ....    0
 Multiplicity           Mult            ....    1
 Number of Electrons    NEL             ....  184
Dispersion correction           -0.031843752
FINAL SINGLE POINT ENERGY     -1355.124670698737
Dispersion correction             ... done (  0.1 sec)
Dispersion correction           -0.031652663
FINAL SINGLE POINT ENERGY     -1355.125040039458
Dispersion correction             ... done (  0.1 sec)
Dispersion correction           -0.031527549
FINAL SINGLE POINT ENERGY     -1355.124738228342
Dispersion correction             ... done (  0.1 sec)
FINAL SINGLE POINT ENERGY     -1355.124904799633
FINAL SINGLE POINT ENERGY     -1355.124834084643
FINAL SINGLE POINT ENERGY     -1355.124931936420
FINAL SINGLE POINT ENERGY     -1355.124852349523
FINAL SINGLE POINT ENERGY     -1355.124931436803
Dispersion correction             ... done (  0.1 sec)
Dispersion correction           -0.031621777
FINAL SINGLE POINT ENERGY     -1355.124922539727
Dispersion correction             ... done (  0.1 sec)
Dispersion correction           -0.031577689
FINAL SINGLE POINT ENERGY     -1355.124932685458
Dispersion correction             ... done (  0.1 sec)
                    ***********************HURRAY********************

CARTESIAN COORDINATES (ANGSTROEM)
---------------------------------
  C     -2.278839   -1.462932    0.973762
  C     -1.092067   -0.782140    0.614466
  C     -0.085977   -1.524759   -0.013596
  C     -0.212096   -2.890848   -0.272045
  C     -1.376183   -3.545450    0.107608
  C     -2.405898   -2.832140    0.723472
  H      0.840424   -1.019104   -0.277630
  H      0.597199   -3.434750   -0.751425
  H     -1.496135   -4.610058   -0.076252
  H     -3.315186   -3.355972    1.003235
  N     -3.316089   -0.732628    1.631426
  B     -0.819665    0.748538    0.952929
  H      1.930375    3.834060   -0.047197
  H      3.536715    3.090694   -0.186165
  H      2.073520    2.087641   -0.272194
  C      4.177401    0.826575    1.308896
  H      5.050772    1.484292    1.240745
  H      4.506299   -0.134680    1.713436
  H      3.787078    0.654192    0.304157
  C      3.615578    1.459903    3.666230
  H      3.814642    0.434538    3.989819
  H      4.539465    2.038299    3.763214
  H      2.862260    1.886155    4.335533
  C     -0.537134    0.912184    2.856497
  C     -0.608964   -0.293926    3.563608
  C     -1.532531   -0.297598    4.616733
  H     -1.648928    1.595533    0.772624
  H      0.257997    1.117362    0.519033
  C      2.544855    2.809420    1.735748
  C      3.117669    1.428599    2.220373
  O      1.172589    2.744049    2.185921
  O      1.952604    0.576244    2.197420
  B      0.847029    1.406033    2.253584
  C      3.199027    4.028151    2.370366
  H      2.738958    4.937667    1.974404
  H      3.074082    4.030118    3.454764
  H      4.268860    4.058531    2.137064
  C      2.527044    2.955768    0.213500
  H      0.010010   -1.141469    3.288090
  C     -2.169514    0.923084    4.729715
  H     -1.736468   -1.145413    5.259309
  H     -2.939565    1.188017    5.444460
  S     -1.648798    2.046807    3.579711
  C     -4.102844    0.109957    0.739138
  H     -4.779681   -0.487890    0.102581
  H     -4.707816    0.803416    1.333349
  H     -3.447838    0.695453    0.094562
  C     -4.172433   -1.493739    2.518689
  H     -4.739306   -0.795831    3.144910
  H     -4.903595   -2.134647    1.992570
  H     -3.565736   -2.124256    3.174394

 Multiplicity           Mult            ....    1
 Number of Electrons    NEL             ....  184
 Basis Dimension        Dim             ....  571

ORBITAL ENERGIES
----------------

  NO   OCC          E(Eh)            E(eV)
   0   2.0000     -89.007285     -2422.0114
   1   2.0000     -19.251682      -523.8649
   2   2.0000     -19.249034      -523.7929
   3   2.0000     -14.430539      -392.6749
   4   2.0000     -10.353236      -281.7259
   5   2.0000     -10.352812      -281.7143
   6   2.0000     -10.351944      -281.6907
   7   2.0000     -10.328764      -281.0600
   8   2.0000     -10.315824      -280.7079
   9   2.0000     -10.313431      -280.6427
  10   2.0000     -10.309142      -280.5260
  11   2.0000     -10.302619      -280.3485
  12   2.0000     -10.295002      -280.1412
  13   2.0000     -10.281000      -279.7602
  14   2.0000     -10.280354      -279.7427
  15   2.0000     -10.280325      -279.7419
  16   2.0000     -10.278662      -279.6966
  17   2.0000     -10.275942      -279.6226
  18   2.0000     -10.275639      -279.6144
  19   2.0000     -10.274101      -279.5725
  20   2.0000     -10.273602      -279.5589
  21   2.0000     -10.256859      -279.1033
  22   2.0000      -8.099698      -220.4040
  23   2.0000      -6.901962      -187.8119
  24   2.0000      -6.816361      -185.4826
  25   2.0000      -6.053810      -164.7325
  26   2.0000      -6.049090      -164.6041
  27   2.0000      -6.047616      -164.5640
  28   2.0000      -1.180429       -32.1211
  29   2.0000      -1.109200       -30.1829
  30   2.0000      -1.044817       -28.4309
  31   2.0000      -1.022847       -27.8331
  32   2.0000      -0.948969       -25.8228
  33   2.0000      -0.927222       -25.2310
  34   2.0000      -0.874431       -23.7945
  35   2.0000      -0.868119       -23.6227
  36   2.0000      -0.865574       -23.5535
  37   2.0000      -0.845095       -22.9962
  38   2.0000      -0.844019       -22.9669
  39   2.0000      -0.823845       -22.4180
  40   2.0000      -0.814464       -22.1627
  41   2.0000      -0.794363       -21.6157
  42   2.0000      -0.749489       -20.3946
  43   2.0000      -0.738826       -20.1045
  44   2.0000      -0.707622       -19.2554
  45   2.0000      -0.692445       -18.8424
  46   2.0000      -0.685825       -18.6622
  47   2.0000      -0.669741       -18.2246
  48   2.0000      -0.657968       -17.9042
  49   2.0000      -0.648400       -17.6439
  50   2.0000      -0.632728       -17.2174
  51   2.0000      -0.617243       -16.7960
  52   2.0000      -0.590292       -16.0627
  53   2.0000      -0.576701       -15.6928
  54   2.0000      -0.566940       -15.4272
  55   2.0000      -0.563533       -15.3345
  56   2.0000      -0.556363       -15.1394
  57   2.0000      -0.551736       -15.0135
  58   2.0000      -0.546732       -14.8773
  59   2.0000      -0.541959       -14.7474
  60   2.0000      -0.527241       -14.3470
  61   2.0000      -0.520454       -14.1623
  62   2.0000      -0.513714       -13.9789
  63   2.0000      -0.511141       -13.9089
  64   2.0000      -0.504155       -13.7187
  65   2.0000      -0.501606       -13.6494
  66   2.0000      -0.496046       -13.4981
  67   2.0000      -0.495613       -13.4863
  68   2.0000      -0.490029       -13.3344
  69   2.0000      -0.482534       -13.1304
  70   2.0000      -0.473733       -12.8909
  71   2.0000      -0.472495       -12.8572
  72   2.0000      -0.469636       -12.7794
  73   2.0000      -0.465032       -12.6542
  74   2.0000      -0.462332       -12.5807
  75   2.0000      -0.460883       -12.5413
  76   2.0000      -0.453466       -12.3394
  77   2.0000      -0.449487       -12.2312
  78   2.0000      -0.447948       -12.1893
  79   2.0000      -0.443032       -12.0555
  80   2.0000      -0.435982       -11.8637
  81   2.0000      -0.428808       -11.6685
  82   2.0000      -0.420299       -11.4369
  83   2.0000      -0.400734       -10.9045
  84   2.0000      -0.391442       -10.6517
  85   2.0000      -0.377480       -10.2718
  86   2.0000      -0.364976        -9.9315
  87   2.0000      -0.357842        -9.7374
  88   2.0000      -0.347251        -9.4492
  89   2.0000      -0.336229        -9.1492
  90   2.0000      -0.312798        -8.5117
  91   2.0000      -0.279283        -7.5997
  92   0.0000      -0.010637        -0.2894
  93   0.0000       0.053618         1.4590
  94   0.0000       0.058982         1.6050
  95   0.0000       0.067515         1.8372
  96   0.0000       0.069560         1.8928

MULLIKEN ATOMIC CHARGES
-----------------------
   0 C :   -0.556660
   1 C :   -0.406568
   2 C :    0.064109
   3 C :   -0.122631
   4 C :   -0.095886
   5 C :   -0.074444
   6 H :    0.137675
   7 H :    0.143249
   8 H :    0.145792
   9 H :    0.133899
  10 N :   -0.035535
  11 B :   -0.088158
  12 H :    0.170323
  13 H :    0.161194
  14 H :    0.173463
  15 C :   -0.436926
  16 H :    0.161389
  17 H :    0.164574
  18 H :    0.172194
  19 C :   -0.280355
  20 H :    0.167897
  21 H :    0.162176
  22 H :    0.169136
  23 C :   -0.758551
  24 C :    0.344913
  25 C :   -0.319445
  26 H :   -0.028893
  27 H :   -0.079443
  28 C :   -0.062568
  29 C :   -0.420968
  30 O :   -0.446278
  31 O :   -0.417416
  32 B :    1.230060
  33 C :   -0.426281
  34 H :    0.166658
  35 H :    0.169987
  36 H :    0.161294
  37 C :   -0.312766
  38 H :    0.195826
  39 C :   -0.143573
  40 H :    0.168649
  41 H :    0.197550
  42 S :    0.260885
  43 C :   -0.154290
  44 H :    0.135154
  45 H :    0.140036
  46 H :    0.164319
  47 C :   -0.230680
  48 H :    0.144887
  49 H :    0.134929
  50 H :    0.156096
Sum of atomic charges:   -0.0000000

LOEWDIN ATOMIC CHARGES
----------------------
   0 C :   -0.065606
   1 C :   -0.167526
   2 C :   -0.133878
   3 C :   -0.162788
   4 C :   -0.138987
   5 C :   -0.168104
   6 H :    0.161931
   7 H :    0.152019
   8 H :    0.151891
   9 H :    0.164345
  10 N :   -0.422747
  11 B :   -0.174983
  12 H :    0.158435
  13 H :    0.150322
  14 H :    0.159926
  15 C :   -0.306642
  16 H :    0.152606
  17 H :    0.152724
  18 H :    0.157924
  19 C :   -0.305930
  20 H :    0.155715
  21 H :    0.149780
  22 H :    0.159541
  23 C :   -0.360260
  24 C :   -0.057193
  25 C :   -0.199929
  26 H :    0.104623
  27 H :    0.136415
  28 C :   -0.062280
  29 C :   -0.060761
  30 O :   -0.329720
  31 O :   -0.338173
  32 B :    0.025183
  33 C :   -0.305901
  34 H :    0.152835
  35 H :    0.156786
  36 H :    0.152809
  37 C :   -0.312719
  38 H :    0.198292
  39 C :   -0.271716
  40 H :    0.168373
  41 H :    0.169979
  42 S :    0.608665
  43 C :   -0.210845
  44 H :    0.140485
  45 H :    0.141948
  46 H :    0.159966
  47 C :   -0.225493
  48 H :    0.145833
  49 H :    0.135512
  50 H :    0.157319

  Mayer bond orders larger than 0.100000
B(  0-C ,  1-C ) :   0.7392 B(  0-C ,  2-C ) :   0.2457 B(  0-C ,  4-C ) :  -0.1583
B(  0-C ,  5-C ) :   1.4431 B(  0-C ,  9-H ) :   0.2694 B(  0-C , 10-N ) :   1.7281
B(  0-C , 11-B ) :  -0.2094 B(  0-C , 24-C ) :  -0.1235 B(  0-C , 26-H ) :  -0.2102
B(  0-C , 43-C ) :  -0.1753 B(  0-C , 44-H ) :  -0.1053 B(  1-C ,  2-C ) :   1.4609
B(  1-C ,  4-C ) :   0.2132 B(  1-C ,  5-C ) :   0.2745 B(  1-C ,  6-H ) :   0.1673
B(  1-C ,  9-H ) :   0.1192 B(  1-C , 10-N ) :  -0.6424 B(  1-C , 11-B ) :   1.1718
B(  1-C , 23-C ) :   0.1788 B(  1-C , 26-H ) :   0.2199 B(  2-C ,  3-C ) :   1.6067
B(  2-C ,  4-C ) :  -0.2600 B(  2-C ,  5-C ) :   0.1090 B(  2-C ,  6-H ) :   0.6597
B(  2-C , 11-B ) :   0.2426 B(  3-C ,  4-C ) :   1.7881 B(  3-C ,  5-C ) :  -0.1566
B(  3-C ,  7-H ) :   0.8087 B(  4-C ,  5-C ) :   1.9561 B(  4-C ,  8-H ) :   0.7618
B(  5-C ,  8-H ) :   0.1201 B(  5-C ,  9-H ) :   0.5437 B(  5-C , 43-C ) :   0.1077
B( 10-N , 32-B ) :  -0.1087 B( 10-N , 43-C ) :   0.7640 B( 10-N , 47-C ) :   0.7415
B( 11-B , 23-C ) :   0.4507 B( 11-B , 26-H ) :   0.9290 B( 11-B , 27-H ) :   0.9589
B( 11-B , 28-C ) :  -0.1100 B( 11-B , 29-C ) :   0.1089 B( 11-B , 32-B ) :   0.1928
B( 12-H , 37-C ) :   1.0107 B( 13-H , 37-C ) :   0.9233 B( 14-H , 37-C ) :   0.9583
B( 15-C , 16-H ) :   0.9446 B( 15-C , 17-H ) :   0.9561 B( 15-C , 18-H ) :   0.9794
B( 15-C , 29-C ) :   1.1370 B( 15-C , 31-O ) :  -0.2018 B( 19-C , 20-H ) :   0.9791
B( 19-C , 21-H ) :   0.9190 B( 19-C , 22-H ) :   1.0023 B( 19-C , 29-C ) :   0.9365
B( 19-C , 30-O ) :  -0.1032 B( 19-C , 31-O ) :  -0.1778 B( 23-C , 24-C ) :   1.0240
B( 23-C , 27-H ) :  -0.2049 B( 23-C , 28-C ) :   0.1461 B( 23-C , 29-C ) :  -0.1262
B( 23-C , 32-B ) :   0.5411 B( 23-C , 38-H ) :   0.1326 B( 23-C , 42-S ) :   1.0405
B( 24-C , 25-C ) :   1.4373 B( 24-C , 38-H ) :   0.7591 B( 24-C , 39-C ) :  -0.1187
B( 25-C , 39-C ) :   1.7054 B( 25-C , 40-H ) :   0.8296 B( 25-C , 42-S ) :   0.1002
B( 27-H , 32-B ) :   0.1512 B( 28-C , 29-C ) :   0.6261 B( 28-C , 30-O ) :   1.1883
B( 28-C , 33-C ) :   1.0496 B( 28-C , 37-C ) :   1.0294 B( 29-C , 31-O ) :   1.3266
B( 30-O , 32-B ) :   0.8068 B( 30-O , 33-C ) :  -0.1411 B( 30-O , 37-C ) :  -0.1463
B( 31-O , 32-B ) :   0.8990 B( 33-C , 34-H ) :   0.9591 B( 33-C , 35-H ) :   0.9775
B( 33-C , 36-H ) :   0.9424 B( 39-C , 41-H ) :   0.7998 B( 39-C , 42-S ) :   1.4503
B( 43-C , 44-H ) :   0.9874 B( 43-C , 45-H ) :   0.9699 B( 43-C , 46-H ) :   0.9593
B( 47-C , 48-H ) :   0.9793 B( 47-C , 49-H ) :   0.9463 B( 47-C , 50-H ) :   0.9822

Dispersion correction           -0.031583098
FINAL SINGLE POINT ENERGY     -1355.124935671204

DIPOLE MOMENT
-------------

Method             : SCF
Type of density    : Electron Density
Multiplicity       :   1
Irrep              :   0
Energy             : -1355.0933525736834326 Eh
Basis              : AO
                                X                 Y                 Z
Electronic contribution:    -10.136181019      -0.623618331       6.623982187
Nuclear contribution   :     10.357536379       0.696930272      -5.358826491
                        -----------------------------------------
Total Dipole Moment    :      0.221355360       0.073311941       1.265155696
                        -----------------------------------------
Magnitude (a.u.)       :      1.286464835
Magnitude (Debye)      :      3.269933744

VIBRATIONAL FREQUENCIES
-----------------------

Scaling factor for frequencies =  1.000000000  (already applied!)

     0:       0.00 cm**-1
     1:       0.00 cm**-1
     2:       0.00 cm**-1
     3:       0.00 cm**-1
     4:       0.00 cm**-1
     5:       0.00 cm**-1
     6:    -163.22 cm**-1  ***imaginary mode***
     7:     -24.22 cm**-1  ***imaginary mode***
     8:      27.85 cm**-1
     9:      45.60 cm**-1
    10:      55.71 cm**-1
    11:      63.94 cm**-1
    12:      84.36 cm**-1
    13:     100.94 cm**-1
    14:     110.54 cm**-1
    15:     126.59 cm**-1
    16:     130.19 cm**-1
    17:     142.15 cm**-1
    18:     162.12 cm**-1
    19:     208.39 cm**-1
    20:     227.28 cm**-1
    21:     236.54 cm**-1
    22:     248.08 cm**-1
    23:     259.78 cm**-1
    24:     272.82 cm**-1
    25:     285.23 cm**-1
    26:     302.40 cm**-1
    27:     305.36 cm**-1
    28:     307.06 cm**-1
    29:     314.20 cm**-1
    30:     322.89 cm**-1
    31:     337.23 cm**-1
    32:     357.61 cm**-1
    33:     372.45 cm**-1
    34:     376.13 cm**-1
    35:     392.12 cm**-1
    36:     399.23 cm**-1
    37:     428.38 cm**-1
    38:     480.87 cm**-1
    39:     486.58 cm**-1
    40:     500.59 cm**-1
    41:     512.32 cm**-1
    42:     532.10 cm**-1
    43:     538.36 cm**-1
    44:     569.44 cm**-1
    45:     578.89 cm**-1
    46:     589.46 cm**-1
    47:     598.59 cm**-1
    48:     607.21 cm**-1
    49:     655.43 cm**-1
    50:     684.54 cm**-1
    51:     732.50 cm**-1
    52:     758.56 cm**-1
    53:     765.14 cm**-1
    54:     769.35 cm**-1
    55:     788.08 cm**-1
    56:     794.51 cm**-1
    57:     799.75 cm**-1
    58:     826.45 cm**-1
    59:     876.92 cm**-1
    60:     894.13 cm**-1
    61:     900.04 cm**-1
    62:     908.50 cm**-1
    63:     913.85 cm**-1
    64:     946.88 cm**-1
    65:     949.07 cm**-1
    66:     958.01 cm**-1
    67:     975.12 cm**-1
    68:     981.12 cm**-1
    69:     985.92 cm**-1
    70:     987.34 cm**-1
    71:     993.84 cm**-1
    72:    1011.79 cm**-1
    73:    1015.06 cm**-1
    74:    1016.96 cm**-1
    75:    1034.35 cm**-1
    76:    1083.90 cm**-1
    77:    1086.76 cm**-1
    78:    1104.74 cm**-1
    79:    1113.28 cm**-1
    80:    1119.58 cm**-1
    81:    1124.94 cm**-1
    82:    1147.27 cm**-1
    83:    1153.97 cm**-1
    84:    1176.30 cm**-1
    85:    1186.50 cm**-1
    86:    1191.95 cm**-1
    87:    1193.40 cm**-1
    88:    1204.90 cm**-1
    89:    1207.08 cm**-1
    90:    1241.29 cm**-1
    91:    1255.02 cm**-1
    92:    1263.21 cm**-1
    93:    1264.83 cm**-1
    94:    1288.63 cm**-1
    95:    1307.38 cm**-1
    96:    1315.05 cm**-1
    97:    1330.12 cm**-1
    98:    1336.22 cm**-1
    99:    1340.27 cm**-1
   100:    1370.45 cm**-1
   101:    1381.89 cm**-1
   102:    1416.62 cm**-1
   103:    1419.60 cm**-1
   104:    1426.77 cm**-1
   105:    1436.44 cm**-1
   106:    1449.69 cm**-1
   107:    1475.20 cm**-1
   108:    1476.09 cm**-1
   109:    1479.01 cm**-1
   110:    1488.19 cm**-1
   111:    1489.39 cm**-1
   112:    1491.07 cm**-1
   113:    1491.97 cm**-1
   114:    1495.22 cm**-1
   115:    1502.56 cm**-1
   116:    1507.32 cm**-1
   117:    1510.60 cm**-1
   118:    1514.65 cm**-1
   119:    1517.46 cm**-1
   120:    1527.80 cm**-1
   121:    1532.15 cm**-1
   122:    1541.38 cm**-1
   123:    1553.63 cm**-1
   124:    1654.85 cm**-1
   125:    1677.55 cm**-1
   126:    2487.81 cm**-1
   127:    2615.44 cm**-1
   128:    2974.39 cm**-1
   129:    2983.01 cm**-1
   130:    3073.85 cm**-1
   131:    3077.21 cm**-1
   132:    3078.45 cm**-1
   133:    3082.26 cm**-1
   134:    3093.09 cm**-1
   135:    3105.07 cm**-1
   136:    3154.10 cm**-1
   137:    3156.60 cm**-1
   138:    3157.55 cm**-1
   139:    3163.13 cm**-1
   140:    3165.45 cm**-1
   141:    3166.97 cm**-1
   142:    3171.19 cm**-1
   143:    3183.16 cm**-1
   144:    3183.97 cm**-1
   145:    3195.42 cm**-1
   146:    3197.94 cm**-1
   147:    3207.16 cm**-1
   148:    3223.88 cm**-1
   149:    3232.86 cm**-1
   150:    3251.25 cm**-1
   151:    3264.53 cm**-1
   152:    3280.11 cm**-1

IR SPECTRUM
-----------

 Mode   freq       eps      Int      T**2         TX        TY        TZ
       cm**-1   L/(mol*cm) km/mol    a.u.
----------------------------------------------------------------------------
  8:     27.85   0.000065    0.33  0.000724  ( 0.009897  0.009365  0.023210)
  9:     45.60   0.000272    1.37  0.001859  (-0.018853 -0.014827 -0.035829)
 10:     55.71   0.000159    0.80  0.000890  (-0.021808  0.019165 -0.006890)
 11:     63.94   0.000107    0.54  0.000520  ( 0.016734  0.014715  0.004893)
 12:     84.36   0.000392    1.98  0.001451  (-0.035824  0.012633 -0.002921)
 13:    100.94   0.000092    0.47  0.000286  (-0.004073 -0.008494 -0.014031)
 14:    110.54   0.000747    3.78  0.002110  (-0.021905 -0.022104 -0.033788)
 15:    126.59   0.000244    1.23  0.000601  ( 0.018242  0.014760 -0.007108)
 16:    130.19   0.000667    3.37  0.001598  ( 0.035595  0.005663  0.017280)
 17:    142.15   0.001878    9.49  0.004122  (-0.010885 -0.019075 -0.060327)
 18:    162.12   0.001727    8.73  0.003324  (-0.000036  0.017398  0.054967)
 19:    208.39   0.000929    4.70  0.001392  ( 0.004457  0.019711  0.031357)
 20:    227.28   0.000182    0.92  0.000250  ( 0.013569  0.007554 -0.002938)
 21:    236.54   0.000102    0.52  0.000135  ( 0.007978  0.006331 -0.005573)
 22:    248.08   0.000492    2.48  0.000618  (-0.023368 -0.004209  0.007390)
 23:    259.78   0.000040    0.20  0.000048  (-0.006646 -0.001708 -0.000758)
 24:    272.82   0.001356    6.85  0.001551  ( 0.018190  0.016431  0.030824)
 25:    285.23   0.000649    3.28  0.000710  (-0.026066 -0.005442 -0.001192)
 26:    302.40   0.000030    0.15  0.000031  (-0.000064 -0.001054 -0.005487)
 27:    305.36   0.000115    0.58  0.000118  (-0.004213  0.007983 -0.006029)
 28:    307.06   0.000523    2.65  0.000532  ( 0.004987  0.014792  0.016979)
 29:    314.20   0.000387    1.96  0.000385  (-0.000683 -0.005738 -0.018743)
 30:    322.89   0.000048    0.24  0.000047  (-0.001059 -0.006187 -0.002712)
 31:    337.23   0.000297    1.50  0.000274  ( 0.004360  0.003980 -0.015481)
 32:    357.61   0.000054    0.27  0.000047  ( 0.004327 -0.002798  0.004552)
 33:    372.45   0.000613    3.10  0.000514  (-0.002651 -0.015010 -0.016775)
 34:    376.13   0.004080   20.62  0.003385  (-0.021830 -0.031950 -0.043449)
 35:    392.12   0.001480    7.48  0.001178  ( 0.006075  0.006317  0.033185)
 36:    399.23   0.001856    9.38  0.001450  ( 0.012327  0.007908  0.035156)
 37:    428.38   0.001263    6.38  0.000920  (-0.015548 -0.014972 -0.021305)
 38:    480.87   0.001113    5.62  0.000722  (-0.014251 -0.002677  0.022625)
 39:    486.58   0.000802    4.05  0.000514  ( 0.009756  0.018553  0.008647)
 40:    500.59   0.003248   16.41  0.002025  (-0.022306 -0.017488 -0.034946)
 41:    512.32   0.001643    8.30  0.001001  (-0.003892 -0.005571 -0.030898)
 42:    532.10   0.000211    1.07  0.000124  (-0.010798 -0.001616  0.002166)
 43:    538.36   0.001531    7.74  0.000888  (-0.019485 -0.022459 -0.001865)
 44:    569.44   0.016790   84.85  0.009201  ( 0.028878  0.013445  0.090480)
 45:    578.89   0.002613   13.21  0.001409  ( 0.008260  0.019679  0.030875)
 46:    589.46   0.000920    4.65  0.000487  (-0.012111  0.013576 -0.012494)
 47:    598.59   0.000100    0.51  0.000052  ( 0.002561 -0.000590 -0.006730)
 48:    607.21   0.044841  226.61  0.023045  (-0.056243 -0.052902 -0.130703)
 49:    655.43   0.001282    6.48  0.000611  ( 0.015462  0.011255  0.015648)
 50:    684.54   0.001243    6.28  0.000566  ( 0.020774  0.008787 -0.007595)
 51:    732.50   0.000034    0.17  0.000014  ( 0.000840  0.002339  0.002851)
 52:    758.56   0.012244   61.88  0.005037  (-0.061974 -0.008144 -0.033614)
 53:    765.14   0.000959    4.84  0.000391  ( 0.009706  0.014548 -0.009225)
 54:    769.35   0.004722   23.86  0.001915  ( 0.037878  0.016826  0.014048)
 55:    788.08   0.009936   50.21  0.003935  ( 0.009289 -0.007873 -0.061533)
 56:    794.51   0.003512   17.75  0.001379  (-0.026528 -0.003756 -0.025720)
 57:    799.75   0.002410   12.18  0.000940  ( 0.024371 -0.005123  0.017895)
 58:    826.45   0.001906    9.63  0.000720  (-0.018991 -0.017339 -0.007644)
 59:    876.92   0.001489    7.53  0.000530  ( 0.005725 -0.015550 -0.015981)
 60:    894.13   0.006098   30.82  0.002128  (-0.030876 -0.012301  0.031995)
 61:    900.04   0.001078    5.45  0.000374  (-0.013250  0.007760  0.011745)
 62:    908.50   0.002477   12.52  0.000851  (-0.010929  0.023062  0.014120)
 63:    913.85   0.002399   12.12  0.000819  (-0.014650  0.020228  0.013981)
 64:    946.88   0.000013    0.07  0.000004  (-0.001281 -0.000589 -0.001559)
 65:    949.07   0.000007    0.04  0.000002  (-0.001314 -0.000812  0.000057)
 66:    958.01   0.001107    5.60  0.000361  ( 0.018271 -0.003887  0.003428)
 67:    975.12   0.006643   33.57  0.002126  ( 0.009666  0.010314  0.043887)
 68:    981.12   0.000331    1.67  0.000105  ( 0.008046  0.000614 -0.006332)
 69:    985.92   0.002947   14.89  0.000933  ( 0.006276 -0.003069 -0.029731)
 70:    987.34   0.001591    8.04  0.000503  (-0.003517  0.001524  0.022092)
 71:    993.84   0.006849   34.61  0.002151  ( 0.046183 -0.002554  0.003349)
 72:   1011.79   0.000516    2.61  0.000159  (-0.009709 -0.005916 -0.005458)
 73:   1015.06   0.004380   22.14  0.001347  (-0.026507 -0.014318 -0.020952)
 74:   1016.96   0.010615   53.65  0.003257  (-0.039845 -0.021465 -0.034772)
 75:   1034.35   0.019786   99.99  0.005969  (-0.057171 -0.030703 -0.041930)
 76:   1083.90   0.001602    8.10  0.000461  (-0.002244 -0.020688  0.005316)
 77:   1086.76   0.002280   11.52  0.000655  ( 0.000746 -0.019925 -0.016037)
 78:   1104.74   0.033866  171.15  0.009566  (-0.080647 -0.049250 -0.025239)
 79:   1113.28   0.003340   16.88  0.000936  (-0.026929  0.010387 -0.010156)
 80:   1119.58   0.000966    4.88  0.000269  (-0.005644  0.005785  0.014279)
 81:   1124.94   0.001376    6.96  0.000382  ( 0.010558 -0.015824  0.004470)
 82:   1147.27   0.016447   83.12  0.004474  ( 0.027119  0.041144  0.045227)
 83:   1153.97   0.001850    9.35  0.000500  ( 0.015422 -0.011693  0.011214)
 84:   1176.30   0.004286   21.66  0.001137  ( 0.029101  0.012152  0.011940)
 85:   1186.50   0.004622   23.36  0.001216  (-0.015669 -0.021484 -0.022552)
 86:   1191.95   0.009641   48.72  0.002524  ( 0.029993  0.032385  0.023994)
 87:   1193.40   0.002372   11.99  0.000620  ( 0.022580 -0.008792 -0.005755)
 88:   1204.90   0.006070   30.67  0.001572  (-0.011483  0.004167 -0.037721)
 89:   1207.08   0.050405  254.73  0.013031  (-0.102563 -0.032200  0.038406)
 90:   1241.29   0.008283   41.86  0.002082  (-0.009836 -0.043405  0.010081)
 91:   1255.02   0.000763    3.85  0.000190  ( 0.005040 -0.010267 -0.007672)
 92:   1263.21   0.002803   14.17  0.000692  (-0.009420 -0.007017 -0.023547)
 93:   1264.83   0.003743   18.92  0.000924  ( 0.011225 -0.027467  0.006565)
 94:   1288.63   0.002026   10.24  0.000491  (-0.020329 -0.005885  0.006540)
 95:   1307.38   0.066605  336.59  0.015898  (-0.109790 -0.046815  0.040652)
 96:   1315.05   0.008822   44.58  0.002093  (-0.037663  0.015936  0.020516)
 97:   1330.12   0.000680    3.44  0.000160  (-0.006212  0.010663 -0.002710)
 98:   1336.22   0.042501  214.78  0.009926  (-0.093835  0.004350  0.033194)
 99:   1340.27   0.032146  162.45  0.007485  ( 0.029049  0.078445 -0.022072)
100:   1370.45   0.005149   26.02  0.001172  (-0.031145  0.013918  0.002949)
101:   1381.89   0.024380  123.20  0.005505  (-0.053589 -0.036315  0.036262)
102:   1416.62   0.005901   29.82  0.001300  ( 0.000680 -0.003666 -0.035861)
103:   1419.60   0.001576    7.97  0.000346  (-0.002163 -0.007357 -0.016962)
104:   1426.77   0.004787   24.19  0.001047  (-0.012823  0.028381 -0.008780)
105:   1436.44   0.004811   24.31  0.001045  ( 0.028856  0.013318 -0.005935)
106:   1449.69   0.000213    1.08  0.000046  (-0.000154  0.003212 -0.005963)
107:   1475.20   0.014017   70.84  0.002965  ( 0.037312 -0.027948 -0.028139)
108:   1476.09   0.000895    4.53  0.000189  ( 0.004702 -0.008485 -0.009758)
109:   1479.01   0.000181    0.91  0.000038  (-0.001182 -0.005946 -0.001177)
110:   1488.19   0.000272    1.37  0.000057  ( 0.000720  0.002538 -0.007074)
111:   1489.39   0.000773    3.91  0.000162  (-0.001273 -0.006086  0.011108)
112:   1491.07   0.000217    1.09  0.000045  ( 0.002289  0.006299  0.000652)
113:   1491.97   0.004812   24.32  0.001007  (-0.025540  0.011784  0.014676)
114:   1495.22   0.001534    7.75  0.000320  ( 0.007696 -0.014930 -0.006173)
115:   1502.56   0.003033   15.33  0.000630  ( 0.003177 -0.024179 -0.005927)
116:   1507.32   0.003209   16.22  0.000664  ( 0.003879  0.007067  0.024481)
117:   1510.60   0.001000    5.05  0.000206  ( 0.008724 -0.006288  0.009531)
118:   1514.65   0.000506    2.56  0.000104  ( 0.001624 -0.010078 -0.000386)
119:   1517.46   0.000823    4.16  0.000169  ( 0.012531  0.002438 -0.002503)
120:   1527.80   0.000389    1.97  0.000080  (-0.006935  0.005253 -0.001956)
121:   1532.15   0.002463   12.45  0.000502  ( 0.021012  0.007005 -0.003344)
122:   1541.38   0.012808   64.73  0.002593  ( 0.045939 -0.014158 -0.016802)
123:   1553.63   0.007834   39.59  0.001573  (-0.026284 -0.019899  0.022061)
124:   1654.85   0.003121   15.77  0.000589  ( 0.022955  0.006648 -0.004172)
125:   1677.55   0.005858   29.60  0.001090  ( 0.021341 -0.022051 -0.012164)
126:   2487.81   0.049455  249.92  0.006203  ( 0.063576  0.045459 -0.009751)
127:   2615.44   0.020452  103.36  0.002440  (-0.036692  0.029503 -0.014954)
128:   2974.39   0.015291   77.27  0.001604  ( 0.029192  0.025701 -0.009569)
129:   2983.01   0.031577  159.58  0.003303  (-0.050783 -0.005795 -0.026286)
130:   3073.85   0.001849    9.35  0.000188  (-0.001970 -0.000851  0.013533)
131:   3077.21   0.004353   22.00  0.000441  ( 0.007346  0.010054  0.016922)
132:   3078.45   0.002674   13.51  0.000271  ( 0.011873 -0.010067  0.005358)
133:   3082.26   0.006421   32.45  0.000650  ( 0.021052  0.011097 -0.009152)
134:   3093.09   0.007370   37.24  0.000744  ( 0.005182 -0.011021 -0.024397)
135:   3105.07   0.006858   34.66  0.000689  (-0.010092  0.021807  0.010573)
136:   3154.10   0.004540   22.95  0.000449  (-0.017406  0.011041 -0.004933)
137:   3156.60   0.000496    2.51  0.000049  ( 0.000647  0.006942 -0.000655)
138:   3157.55   0.002129   10.76  0.000210  ( 0.004524 -0.013747  0.001002)
139:   3163.13   0.002828   14.29  0.000279  ( 0.015937  0.000794 -0.004940)
140:   3165.45   0.004242   21.44  0.000418  ( 0.006471 -0.019272  0.002210)
141:   3166.97   0.008451   42.71  0.000833  ( 0.027673  0.007722 -0.002710)
142:   3171.19   0.005115   25.85  0.000503  ( 0.002082 -0.022280  0.001606)
143:   3183.16   0.002768   13.99  0.000271  ( 0.005367  0.004648 -0.014866)
144:   3183.97   0.004117   20.81  0.000404  (-0.011148 -0.001934 -0.016599)
145:   3195.42   0.001687    8.52  0.000165  (-0.008827 -0.002447  0.008991)
146:   3197.94   0.000893    4.51  0.000087  ( 0.007924  0.004679 -0.001562)
147:   3207.16   0.002435   12.31  0.000237  ( 0.006383  0.014000 -0.000434)
148:   3223.88   0.005972   30.18  0.000578  ( 0.021184 -0.003194 -0.010915)
149:   3232.86   0.004663   23.57  0.000450  (-0.001233 -0.019968 -0.007065)
150:   3251.25   0.000109    0.55  0.000010  ( 0.000817  0.002113 -0.002306)
151:   3264.53   0.000270    1.36  0.000026  (-0.002118 -0.001751  0.004268)
152:   3280.11   0.000113    0.57  0.000011  ( 0.000536  0.002688 -0.001791)

--------------------------
THERMOCHEMISTRY AT 298.15K
--------------------------

Temperature         ...   298.15 K
Pressure            ...     1.00 atm
Total Mass          ...   343.10 AMU
Quasi RRHO          ...     True
Cut-Off Frequency   ...     1.00 cm^-1

Throughout the following assumptions are being made:
  (1) The electronic state is orbitally nondegenerate
  (2) There are no thermally accessible electronically excited states
  (3) Hindered rotations indicated by low frequency modes are not
      treated as such but are treated as vibrations and this may
      cause some error
  (4) All equations used are the standard statistical mechanics
      equations for an ideal gas
  (5) All vibrations are strictly harmonic

freq.      27.85  E(vib)   ...       0.55
freq.      45.60  E(vib)   ...       0.53
freq.      55.71  E(vib)   ...       0.52
freq.      63.94  E(vib)   ...       0.51
freq.      84.36  E(vib)   ...       0.48
freq.     100.94  E(vib)   ...       0.46
freq.     110.54  E(vib)   ...       0.45
freq.     126.59  E(vib)   ...       0.43
freq.     130.19  E(vib)   ...       0.43
freq.     142.15  E(vib)   ...       0.41
freq.     162.12  E(vib)   ...       0.39
freq.     208.39  E(vib)   ...       0.34
freq.     227.28  E(vib)   ...       0.33
freq.     236.54  E(vib)   ...       0.32
freq.     248.08  E(vib)   ...       0.31
freq.     259.78  E(vib)   ...       0.30
freq.     272.82  E(vib)   ...       0.29
freq.     285.23  E(vib)   ...       0.28
freq.     302.40  E(vib)   ...       0.26
freq.     305.36  E(vib)   ...       0.26
freq.     307.06  E(vib)   ...       0.26
freq.     314.20  E(vib)   ...       0.25
freq.     322.89  E(vib)   ...       0.25
freq.     337.23  E(vib)   ...       0.24
freq.     357.61  E(vib)   ...       0.22
freq.     372.45  E(vib)   ...       0.21
freq.     376.13  E(vib)   ...       0.21
freq.     392.12  E(vib)   ...       0.20
freq.     399.23  E(vib)   ...       0.19
freq.     428.38  E(vib)   ...       0.18
freq.     480.87  E(vib)   ...       0.15
freq.     486.58  E(vib)   ...       0.15
freq.     500.59  E(vib)   ...       0.14
freq.     512.32  E(vib)   ...       0.14
freq.     532.10  E(vib)   ...       0.13
freq.     538.36  E(vib)   ...       0.12
freq.     569.44  E(vib)   ...       0.11
freq.     578.89  E(vib)   ...       0.11
freq.     589.46  E(vib)   ...       0.10
freq.     598.59  E(vib)   ...       0.10
freq.     607.21  E(vib)   ...       0.10
freq.     655.43  E(vib)   ...       0.08
freq.     684.54  E(vib)   ...       0.07
freq.     732.50  E(vib)   ...       0.06
freq.     758.56  E(vib)   ...       0.06
freq.     765.14  E(vib)   ...       0.06
freq.     769.35  E(vib)   ...       0.06
freq.     788.08  E(vib)   ...       0.05
freq.     794.51  E(vib)   ...       0.05
freq.     799.75  E(vib)   ...       0.05
freq.     826.45  E(vib)   ...       0.04
freq.     876.92  E(vib)   ...       0.04
freq.     894.13  E(vib)   ...       0.03
freq.     900.04  E(vib)   ...       0.03
freq.     908.50  E(vib)   ...       0.03
freq.     913.85  E(vib)   ...       0.03
freq.     946.88  E(vib)   ...       0.03
freq.     949.07  E(vib)   ...       0.03
freq.     958.01  E(vib)   ...       0.03
freq.     975.12  E(vib)   ...       0.03
freq.     981.12  E(vib)   ...       0.02
freq.     985.92  E(vib)   ...       0.02
freq.     987.34  E(vib)   ...       0.02
freq.     993.84  E(vib)   ...       0.02
freq.    1011.79  E(vib)   ...       0.02
freq.    1015.06  E(vib)   ...       0.02
freq.    1016.96  E(vib)   ...       0.02
freq.    1034.35  E(vib)   ...       0.02
freq.    1083.90  E(vib)   ...       0.02
freq.    1086.76  E(vib)   ...       0.02
freq.    1104.74  E(vib)   ...       0.02
freq.    1113.28  E(vib)   ...       0.01
freq.    1119.58  E(vib)   ...       0.01
freq.    1124.94  E(vib)   ...       0.01
freq.    1147.27  E(vib)   ...       0.01
freq.    1153.97  E(vib)   ...       0.01
freq.    1176.30  E(vib)   ...       0.01
freq.    1186.50  E(vib)   ...       0.01
freq.    1191.95  E(vib)   ...       0.01
freq.    1193.40  E(vib)   ...       0.01
freq.    1204.90  E(vib)   ...       0.01
freq.    1207.08  E(vib)   ...       0.01
freq.    1241.29  E(vib)   ...       0.01
freq.    1255.02  E(vib)   ...       0.01
freq.    1263.21  E(vib)   ...       0.01
freq.    1264.83  E(vib)   ...       0.01
freq.    1288.63  E(vib)   ...       0.01
freq.    1307.38  E(vib)   ...       0.01
freq.    1315.05  E(vib)   ...       0.01
freq.    1330.12  E(vib)   ...       0.01
freq.    1336.22  E(vib)   ...       0.01
freq.    1340.27  E(vib)   ...       0.01
freq.    1370.45  E(vib)   ...       0.01
freq.    1381.89  E(vib)   ...       0.01
freq.    1416.62  E(vib)   ...       0.00
freq.    1419.60  E(vib)   ...       0.00
freq.    1426.77  E(vib)   ...       0.00
freq.    1436.44  E(vib)   ...       0.00
freq.    1449.69  E(vib)   ...       0.00
freq.    1475.20  E(vib)   ...       0.00
freq.    1476.09  E(vib)   ...       0.00
freq.    1479.01  E(vib)   ...       0.00
freq.    1488.19  E(vib)   ...       0.00
freq.    1489.39  E(vib)   ...       0.00
freq.    1491.07  E(vib)   ...       0.00
freq.    1491.97  E(vib)   ...       0.00
freq.    1495.22  E(vib)   ...       0.00
freq.    1502.56  E(vib)   ...       0.00
freq.    1507.32  E(vib)   ...       0.00
freq.    1510.60  E(vib)   ...       0.00
freq.    1514.65  E(vib)   ...       0.00
freq.    1517.46  E(vib)   ...       0.00
freq.    1527.80  E(vib)   ...       0.00
freq.    1532.15  E(vib)   ...       0.00
freq.    1541.38  E(vib)   ...       0.00
freq.    1553.63  E(vib)   ...       0.00
freq.    1654.85  E(vib)   ...       0.00
freq.    1677.55  E(vib)   ...       0.00
freq.    2487.81  E(vib)   ...       0.00
freq.    2615.44  E(vib)   ...       0.00
freq.    2974.39  E(vib)   ...       0.00
freq.    2983.01  E(vib)   ...       0.00
freq.    3073.85  E(vib)   ...       0.00
freq.    3077.21  E(vib)   ...       0.00
freq.    3078.45  E(vib)   ...       0.00
freq.    3082.26  E(vib)   ...       0.00
freq.    3093.09  E(vib)   ...       0.00
freq.    3105.07  E(vib)   ...       0.00
freq.    3154.10  E(vib)   ...       0.00
freq.    3156.60  E(vib)   ...       0.00
freq.    3157.55  E(vib)   ...       0.00
freq.    3163.13  E(vib)   ...       0.00
freq.    3165.45  E(vib)   ...       0.00
freq.    3166.97  E(vib)   ...       0.00
freq.    3171.19  E(vib)   ...       0.00
freq.    3183.16  E(vib)   ...       0.00
freq.    3183.97  E(vib)   ...       0.00
freq.    3195.42  E(vib)   ...       0.00
freq.    3197.94  E(vib)   ...       0.00
freq.    3207.16  E(vib)   ...       0.00
freq.    3223.88  E(vib)   ...       0.00
freq.    3232.86  E(vib)   ...       0.00

Rotational constants in cm-1:     0.011949     0.005542     0.004549

                             ****ORCA TERMINATED NORMALLY****
TOTAL RUN TIME: 0 days 4 hours 46 minutes 3 seconds 297 msec
