                         Program Version 6.1.0  -  RELEASE   -
|  1> # Automatically generated ORCA input
|  2>
|  3> # Number of cores
|  4> %pal nprocs 8 end
|  5> # RAM per core
|  6> %maxcore 3840
|  7>
|  8> ! wB97X-D3
|  9> ! 6-31+G**
| 10> ! TightSCF
| 11> ! Freq
| 12> ! NoSym
| 13>
| 14> %geom
| 15>   Calc_Hess true
| 16> end
| 17> %Output
| 18>   JSONPropFile True
| 19> End
| 20>
| 21>
| 22> *xyz 0 1
| 23> C        -2.05647800     -2.08167000      0.88774500
| 24> C        -0.71541700     -1.70909900      0.93465100
| 25> C        -0.28416500     -0.42133200      0.59501700
| 26> C        -1.26942000      0.52424300      0.22842000
| 27> C        -2.61511000      0.14482000      0.17402200
| 28> C        -3.00706900     -1.15097000      0.49263400
| 29> H        -2.34915900     -3.09576000      1.14202500
| 30> H         0.02192400     -2.45471600      1.21885300
| 31> H        -3.36878200      0.87022100     -0.11326600
| 32> H        -4.05730300     -1.42267800      0.44033700
| 33> B         1.26449900     -0.02546100      0.55323800
| 34> H         1.77671400     -1.14040800     -0.06933200
| 35> C         1.99846100      0.25456400      1.96532400
| 36> C         1.62154400     -0.15575600      3.22695000
| 37> C         2.29477100      0.51050600      4.28186900
| 38> H         0.87672200     -0.92962200      3.37196900
| 39> C         3.18117500      1.44485800      3.81583600
| 40> H         2.12659900      0.31592000      5.33381600
| 41> H         3.81494600      2.09867900      4.39929800
| 42> H         1.62131100      0.73752700     -0.30016300
| 43> B         2.59843600     -1.50111200      0.82101700
| 44> O         3.91458800     -1.36672900      0.48573300
| 45> O         2.30658900     -2.62545900      1.54984300
| 46> C         4.63313800     -2.30158900      1.32578900
| 47> C         3.53597100     -3.38385200      1.63830500
| 48> C         5.83074700     -2.82008000      0.54378100
| 49> H         6.53510700     -2.00356700      0.36766400
| 50> H         6.34785200     -3.60056500      1.11085300
| 51> H         5.53379600     -3.22754400     -0.42357200
| 52> C         5.10362000     -1.54318600      2.56675900
| 53> H         5.69862800     -0.68425300      2.24864800
| 54> H         4.26367600     -1.17124400      3.15862600
| 55> H         5.72435900     -2.18025300      3.20292000
| 56> C         3.62859600     -3.99703200      3.02758200
| 57> H         2.83537300     -4.73762700      3.15694000
| 58> H         4.59101500     -4.50097500      3.16018600
| 59> H         3.51801500     -3.23895800      3.80436100
| 60> C         3.44580100     -4.47859400      0.57559700
| 61> H         4.30831000     -5.14956000      0.61421600
| 62> H         2.54118900     -5.06516300      0.75235900
| 63> H         3.38026500     -4.04842400     -0.42732600
| 64> N        -0.86959100      1.84904700     -0.09622200
| 65> C        -1.72890400      2.59113700     -0.99317300
| 66> H        -2.65414400      2.96578200     -0.51790000
| 67> H        -1.18024500      3.46196100     -1.36638100
| 68> H        -2.00523900      1.96924900     -1.84792500
| 69> C        -0.45923500      2.66057700      1.03950500
| 70> H         0.13245900      3.51327900      0.69010500
| 71> H        -1.32568600      3.04760200      1.60515900
| 72> H         0.15635300      2.07849500      1.72498600
| 73> S         3.19524800      1.51043600      2.10425400
| 74> *
| 75>
| 76>
| 77>                          ****END OF INPUT****

CARTESIAN COORDINATES (ANGSTROEM)
---------------------------------
  C     -2.056478   -2.081670    0.887745
  C     -0.715417   -1.709099    0.934651
  C     -0.284165   -0.421332    0.595017
  C     -1.269420    0.524243    0.228420
  C     -2.615110    0.144820    0.174022
  C     -3.007069   -1.150970    0.492634
  H     -2.349159   -3.095760    1.142025
  H      0.021924   -2.454716    1.218853
  H     -3.368782    0.870221   -0.113266
  H     -4.057303   -1.422678    0.440337
  B      1.264499   -0.025461    0.553238
  H      1.776714   -1.140408   -0.069332
  C      1.998461    0.254564    1.965324
  C      1.621544   -0.155756    3.226950
  C      2.294771    0.510506    4.281869
  H      0.876722   -0.929622    3.371969
  C      3.181175    1.444858    3.815836
  H      2.126599    0.315920    5.333816
  H      3.814946    2.098679    4.399298
  H      1.621311    0.737527   -0.300163
  B      2.598436   -1.501112    0.821017
  O      3.914588   -1.366729    0.485733
  O      2.306589   -2.625459    1.549843
  C      4.633138   -2.301589    1.325789
  C      3.535971   -3.383852    1.638305
  C      5.830747   -2.820080    0.543781
  H      6.535107   -2.003567    0.367664
  H      6.347852   -3.600565    1.110853
  H      5.533796   -3.227544   -0.423572
  C      5.103620   -1.543186    2.566759
  H      5.698628   -0.684253    2.248648
  H      4.263676   -1.171244    3.158626
  H      5.724359   -2.180253    3.202920
  C      3.628596   -3.997032    3.027582
  H      2.835373   -4.737627    3.156940
  H      4.591015   -4.500975    3.160186
  H      3.518015   -3.238958    3.804361
  C      3.445801   -4.478594    0.575597
  H      4.308310   -5.149560    0.614216
  H      2.541189   -5.065163    0.752359
  H      3.380265   -4.048424   -0.427326
  N     -0.869591    1.849047   -0.096222
  C     -1.728904    2.591137   -0.993173
  H     -2.654144    2.965782   -0.517900
  H     -1.180245    3.461961   -1.366381
  H     -2.005239    1.969249   -1.847925
  C     -0.459235    2.660577    1.039505
  H      0.132459    3.513279    0.690105
  H     -1.325686    3.047602    1.605159
  H      0.156353    2.078495    1.724986
  S      3.195248    1.510436    2.104254

 Total Charge           Charge          ....    0
 Multiplicity           Mult            ....    1
 Number of Electrons    NEL             ....  184
 Basis Dimension        Dim             ....  571

ORBITAL ENERGIES
----------------

  NO   OCC          E(Eh)            E(eV)
   0   2.0000     -88.989620     -2421.5307
   1   2.0000     -19.268116      -524.3121
   2   2.0000     -19.267494      -524.2952
   3   2.0000     -14.428115      -392.6090
   4   2.0000     -10.365213      -282.0518
   5   2.0000     -10.363967      -282.0179
   6   2.0000     -10.327783      -281.0333
   7   2.0000     -10.310858      -280.5727
   8   2.0000     -10.310638      -280.5667
   9   2.0000     -10.302479      -280.3447
  10   2.0000     -10.301086      -280.3068
  11   2.0000     -10.297589      -280.2117
  12   2.0000     -10.294659      -280.1319
  13   2.0000     -10.289240      -279.9845
  14   2.0000     -10.288016      -279.9511
  15   2.0000     -10.286902      -279.9208
  16   2.0000     -10.282266      -279.7947
  17   2.0000     -10.279582      -279.7217
  18   2.0000     -10.274507      -279.5836
  19   2.0000     -10.274370      -279.5798
  20   2.0000     -10.273506      -279.5563
  21   2.0000     -10.263413      -279.2817
  22   2.0000      -8.082280      -219.9300
  23   2.0000      -6.925956      -188.4648
  24   2.0000      -6.833980      -185.9621
  25   2.0000      -6.036442      -164.2599
  26   2.0000      -6.031899      -164.1363
  27   2.0000      -6.029934      -164.0828
  28   2.0000      -1.198042       -32.6004
  29   2.0000      -1.127516       -30.6813
  30   2.0000      -1.044474       -28.4216
  31   2.0000      -1.005903       -27.3720
  32   2.0000      -0.950444       -25.8629
  33   2.0000      -0.938302       -25.5325
  34   2.0000      -0.879570       -23.9343
  35   2.0000      -0.859645       -23.3921
  36   2.0000      -0.853768       -23.2322
  37   2.0000      -0.845129       -22.9971
  38   2.0000      -0.841583       -22.9006
  39   2.0000      -0.832864       -22.6634
  40   2.0000      -0.813161       -22.1272
  41   2.0000      -0.802800       -21.8453
  42   2.0000      -0.757978       -20.6256
  43   2.0000      -0.746789       -20.3212
  44   2.0000      -0.720405       -19.6032
  45   2.0000      -0.692907       -18.8550
  46   2.0000      -0.679443       -18.4886
  47   2.0000      -0.666904       -18.1474
  48   2.0000      -0.666475       -18.1357
  49   2.0000      -0.655559       -17.8387
  50   2.0000      -0.634416       -17.2633
  51   2.0000      -0.611328       -16.6351
  52   2.0000      -0.604089       -16.4381
  53   2.0000      -0.583763       -15.8850
  54   2.0000      -0.578667       -15.7463
  55   2.0000      -0.564704       -15.3664
  56   2.0000      -0.561017       -15.2660
  57   2.0000      -0.556193       -15.1348
  58   2.0000      -0.553566       -15.0633
  59   2.0000      -0.549839       -14.9619
  60   2.0000      -0.531171       -14.4539
  61   2.0000      -0.516001       -14.0411
  62   2.0000      -0.512536       -13.9468
  63   2.0000      -0.510035       -13.8788
  64   2.0000      -0.508079       -13.8255
  65   2.0000      -0.506800       -13.7907
  66   2.0000      -0.503267       -13.6946
  67   2.0000      -0.493702       -13.4343
  68   2.0000      -0.487414       -13.2632
  69   2.0000      -0.483416       -13.1544
  70   2.0000      -0.481456       -13.1011
  71   2.0000      -0.476479       -12.9657
  72   2.0000      -0.475186       -12.9305
  73   2.0000      -0.472855       -12.8670
  74   2.0000      -0.466980       -12.7072
  75   2.0000      -0.465171       -12.6580
  76   2.0000      -0.457198       -12.4410
  77   2.0000      -0.451313       -12.2809
  78   2.0000      -0.448051       -12.1921
  79   2.0000      -0.445861       -12.1325
  80   2.0000      -0.437053       -11.8928
  81   2.0000      -0.435236       -11.8434
  82   2.0000      -0.420310       -11.4372
  83   2.0000      -0.415253       -11.2996
  84   2.0000      -0.409703       -11.1486
  85   2.0000      -0.392568       -10.6823
  86   2.0000      -0.379193       -10.3184
  87   2.0000      -0.341751        -9.2995
  88   2.0000      -0.339334        -9.2337
  89   2.0000      -0.325264        -8.8509
  90   2.0000      -0.315315        -8.5802
  91   2.0000      -0.275564        -7.4985
  92   0.0000       0.016602         0.4518
  93   0.0000       0.051995         1.4149
  94   0.0000       0.061711         1.6792
  95   0.0000       0.066804         1.8178
  96   0.0000       0.069154         1.8818

MULLIKEN ATOMIC CHARGES
-----------------------
   0 C :   -0.413257
   1 C :   -0.029176
   2 C :   -0.097504
   3 C :   -0.351045
   4 C :    0.089739
   5 C :   -0.001757
   6 H :    0.143237
   7 H :    0.146918
   8 H :    0.136655
   9 H :    0.145782
  10 B :    0.064149
  11 H :   -0.010497
  12 C :   -0.960100
  13 C :    0.368592
  14 C :   -0.281722
  15 H :    0.174763
  16 C :   -0.213898
  17 H :    0.165141
  18 H :    0.189194
  19 H :    0.049000
  20 B :    0.795314
  21 O :   -0.374938
  22 O :   -0.370749
  23 C :   -0.510146
  24 C :   -0.055069
  25 C :   -0.441802
  26 H :    0.170930
  27 H :    0.164604
  28 H :    0.169999
  29 C :   -0.176936
  30 H :    0.174526
  31 H :    0.187394
  32 H :    0.162414
  33 C :   -0.423472
  34 H :    0.165611
  35 H :    0.165179
  36 H :    0.177160
  37 C :   -0.309250
  38 H :    0.165526
  39 H :    0.172825
  40 H :    0.168514
  41 N :   -0.056510
  42 C :   -0.244589
  43 H :    0.133071
  44 H :    0.148531
  45 H :    0.159419
  46 C :   -0.236025
  47 H :    0.147312
  48 H :    0.135083
  49 H :    0.157146
  50 S :    0.164716
Sum of atomic charges:    0.0000000

LOEWDIN ATOMIC CHARGES
----------------------
   0 C :   -0.159837
   1 C :   -0.143933
   2 C :   -0.151339
   3 C :   -0.050951
   4 C :   -0.164066
   5 C :   -0.137456
   6 H :    0.151638
   7 H :    0.178508
   8 H :    0.164275
   9 H :    0.151908
  10 B :   -0.202426
  11 H :    0.231408
  12 C :   -0.379813
  13 C :   -0.155749
  14 C :   -0.207485
  15 H :    0.188124
  16 C :   -0.324221
  17 H :    0.162764
  18 H :    0.165378
  19 H :    0.135996
  20 B :    0.056081
  21 O :   -0.306272
  22 O :   -0.349525
  23 C :   -0.057593
  24 C :   -0.055880
  25 C :   -0.302360
  26 H :    0.154570
  27 H :    0.154118
  28 H :    0.156949
  29 C :   -0.308505
  30 H :    0.163068
  31 H :    0.173216
  32 H :    0.152363
  33 C :   -0.301435
  34 H :    0.153616
  35 H :    0.154438
  36 H :    0.160919
  37 C :   -0.303784
  38 H :    0.151466
  39 H :    0.157284
  40 H :    0.159319
  41 N :   -0.411005
  42 C :   -0.218980
  43 H :    0.134135
  44 H :    0.142665
  45 H :    0.153229
  46 C :   -0.203129
  47 H :    0.143499
  48 H :    0.140220
  49 H :    0.166271
  50 S :    0.538318

  Mayer bond orders larger than 0.100000
B(  0-C ,  1-C ) :   0.8885 B(  0-C ,  2-C ) :   0.2927 B(  0-C ,  4-C ) :  -0.1423
B(  0-C ,  5-C ) :   1.8195 B(  0-C ,  6-H ) :   0.8715 B(  0-C , 10-B ) :   0.5873
B(  0-C , 20-B ) :  -0.4019 B(  0-C , 24-C ) :   0.1182 B(  1-C ,  2-C ) :   1.0534
B(  1-C ,  3-C ) :   0.4001 B(  1-C ,  5-C ) :  -0.4037 B(  1-C ,  7-H ) :   0.7115
B(  1-C , 10-B ) :   0.2704 B(  1-C , 11-H ) :   0.3567 B(  1-C , 13-C ) :  -0.2139
B(  1-C , 20-B ) :   0.2768 B(  1-C , 21-O ) :   0.1407 B(  2-C ,  3-C ) :   1.1158
B(  2-C ,  4-C ) :   0.1534 B(  2-C ,  5-C ) :   0.2185 B(  2-C ,  8-H ) :   0.1998
B(  2-C , 10-B ) :   1.1095 B(  2-C , 11-H ) :  -0.2134 B(  2-C , 13-C ) :  -0.1292
B(  2-C , 20-B ) :  -0.2666 B(  2-C , 21-O ) :  -0.1878 B(  2-C , 22-O ) :  -0.1921
B(  2-C , 41-N ) :  -0.9538 B(  2-C , 46-C ) :   0.2216 B(  2-C , 49-H ) :   0.1718
B(  2-C , 50-S ) :   0.1009 B(  3-C ,  4-C ) :   1.6080 B(  3-C ,  7-H ) :   0.1047
B(  3-C ,  8-H ) :   0.2525 B(  3-C , 10-B ) :  -0.8408 B(  3-C , 11-H ) :  -0.2866
B(  3-C , 12-C ) :   0.1423 B(  3-C , 13-C ) :   0.2987 B(  3-C , 14-C ) :  -0.1556
B(  3-C , 19-H ) :  -0.1125 B(  3-C , 20-B ) :   0.2966 B(  3-C , 41-N ) :   2.0318
B(  3-C , 45-H ) :  -0.1097 B(  3-C , 46-C ) :  -0.2958 B(  3-C , 49-H ) :  -0.1318
B(  3-C , 50-S ) :  -0.1143 B(  4-C ,  5-C ) :   1.8468 B(  4-C ,  8-H ) :   0.4930
B(  4-C ,  9-H ) :   0.1104 B(  4-C , 10-B ) :   0.1062 B(  4-C , 20-B ) :  -0.1127
B(  4-C , 41-N ) :   0.2444 B(  4-C , 45-H ) :   0.1004 B(  5-C ,  9-H ) :   0.7572
B( 10-B , 11-H ) :   0.4776 B( 10-B , 12-C ) :   0.6599 B( 10-B , 13-C ) :   0.1992
B( 10-B , 19-H ) :   1.0522 B( 10-B , 20-B ) :   0.2546 B( 10-B , 22-O ) :  -0.1869
B( 11-H , 12-C ) :  -0.1094 B( 11-H , 20-B ) :   0.5836 B( 12-C , 13-C ) :   1.3601
B( 12-C , 15-H ) :   0.2074 B( 12-C , 20-B ) :   0.2372 B( 12-C , 21-O ) :   0.1771
B( 12-C , 23-C ) :   0.2172 B( 12-C , 24-C ) :  -0.1560 B( 12-C , 25-C ) :   0.1068
B( 12-C , 50-S ) :   1.2249 B( 13-C , 14-C ) :   1.5133 B( 13-C , 15-H ) :   0.7194
B( 13-C , 20-B ) :  -0.2372 B( 13-C , 21-O ) :  -0.1272 B( 13-C , 23-C ) :  -0.1277
B( 13-C , 24-C ) :   0.1232 B( 14-C , 16-C ) :   1.7539 B( 14-C , 17-H ) :   0.8448
B( 14-C , 20-B ) :   0.1043 B( 14-C , 50-S ) :   0.1317 B( 16-C , 18-H ) :   0.8088
B( 16-C , 50-S ) :   1.3189 B( 19-H , 20-B ) :  -0.1131 B( 20-B , 21-O ) :   0.9789
B( 20-B , 22-O ) :   1.1951 B( 20-B , 23-C ) :   0.1072 B( 20-B , 24-C ) :   0.1010
B( 20-B , 25-C ) :  -0.1387 B( 20-B , 50-S ) :   0.1374 B( 21-O , 23-C ) :   1.1008
B( 21-O , 29-C ) :  -0.1194 B( 21-O , 37-C ) :  -0.1331 B( 22-O , 23-C ) :   0.1090
B( 22-O , 24-C ) :   0.9415 B( 22-O , 33-C ) :  -0.1869 B( 22-O , 37-C ) :  -0.1068
B( 23-C , 24-C ) :   0.6197 B( 23-C , 25-C ) :   1.0765 B( 23-C , 29-C ) :   1.0629
B( 23-C , 31-H ) :   0.1219 B( 24-C , 33-C ) :   1.0634 B( 24-C , 37-C ) :   0.9227
B( 25-C , 26-H ) :   0.9677 B( 25-C , 27-H ) :   0.9195 B( 25-C , 28-H ) :   0.9752
B( 29-C , 30-H ) :   0.9911 B( 29-C , 31-H ) :   0.9045 B( 29-C , 32-H ) :   0.9161
B( 33-C , 34-H ) :   0.9576 B( 33-C , 35-H ) :   0.9637 B( 33-C , 36-H ) :   0.9598
B( 37-C , 38-H ) :   0.9251 B( 37-C , 39-H ) :   0.9638 B( 37-C , 40-H ) :   1.0263
B( 41-N , 42-C ) :   0.7450 B( 41-N , 46-C ) :   0.8197 B( 42-C , 43-H ) :   0.9487
B( 42-C , 44-H ) :   0.9803 B( 42-C , 45-H ) :   0.9901 B( 46-C , 47-H ) :   0.9661
B( 46-C , 48-H ) :   0.9709 B( 46-C , 49-H ) :   0.9862

Dispersion correction           -0.031360346
FINAL SINGLE POINT ENERGY     -1355.126544965255

DIPOLE MOMENT
-------------

Method             : SCF
Type of density    : Electron Density
Multiplicity       :   1
Irrep              :   0
Energy             : -1355.0951846190321248 Eh
Basis              : AO
                                X                 Y                 Z
Electronic contribution:     -3.070402898       8.542170691       0.187277133
Nuclear contribution   :      4.120041290      -9.202067065       0.722270111
                        -----------------------------------------
Total Dipole Moment    :      1.049638392      -0.659896374       0.909547244
                        -----------------------------------------
Magnitude (a.u.)       :      1.537686628
Magnitude (Debye)      :      3.908488796

VIBRATIONAL FREQUENCIES
-----------------------

Scaling factor for frequencies =  1.000000000  (already applied!)

     0:       0.00 cm**-1
     1:       0.00 cm**-1
     2:       0.00 cm**-1
     3:       0.00 cm**-1
     4:       0.00 cm**-1
     5:       0.00 cm**-1
     6:     -95.18 cm**-1  ***imaginary mode***
     7:     -26.58 cm**-1  ***imaginary mode***
     8:      36.68 cm**-1
     9:      38.44 cm**-1
    10:      52.56 cm**-1
    11:      67.14 cm**-1
    12:      79.47 cm**-1
    13:      89.35 cm**-1
    14:     104.03 cm**-1
    15:     115.11 cm**-1
    16:     136.76 cm**-1
    17:     155.99 cm**-1
    18:     171.92 cm**-1
    19:     188.48 cm**-1
    20:     212.43 cm**-1
    21:     227.40 cm**-1
    22:     229.56 cm**-1
    23:     245.43 cm**-1
    24:     270.01 cm**-1
    25:     288.69 cm**-1
    26:     294.59 cm**-1
    27:     299.43 cm**-1
    28:     311.28 cm**-1
    29:     330.50 cm**-1
    30:     337.88 cm**-1
    31:     345.69 cm**-1
    32:     368.69 cm**-1
    33:     374.68 cm**-1
    34:     379.20 cm**-1
    35:     396.96 cm**-1
    36:     435.98 cm**-1
    37:     463.99 cm**-1
    38:     472.06 cm**-1
    39:     496.59 cm**-1
    40:     527.59 cm**-1
    41:     537.85 cm**-1
    42:     540.45 cm**-1
    43:     556.24 cm**-1
    44:     576.55 cm**-1
    45:     587.63 cm**-1
    46:     593.37 cm**-1
    47:     612.40 cm**-1
    48:     614.86 cm**-1
    49:     681.68 cm**-1
    50:     709.76 cm**-1
    51:     738.58 cm**-1
    52:     741.49 cm**-1
    53:     761.24 cm**-1
    54:     765.22 cm**-1
    55:     775.31 cm**-1
    56:     787.34 cm**-1
    57:     797.69 cm**-1
    58:     826.02 cm**-1
    59:     881.95 cm**-1
    60:     884.12 cm**-1
    61:     890.71 cm**-1
    62:     895.74 cm**-1
    63:     900.02 cm**-1
    64:     948.41 cm**-1
    65:     948.64 cm**-1
    66:     950.18 cm**-1
    67:     979.51 cm**-1
    68:     985.16 cm**-1
    69:     994.06 cm**-1
    70:     996.56 cm**-1
    71:    1000.23 cm**-1
    72:    1013.30 cm**-1
    73:    1016.75 cm**-1
    74:    1025.38 cm**-1
    75:    1052.90 cm**-1
    76:    1077.08 cm**-1
    77:    1089.32 cm**-1
    78:    1095.95 cm**-1
    79:    1108.19 cm**-1
    80:    1121.33 cm**-1
    81:    1124.59 cm**-1
    82:    1150.65 cm**-1
    83:    1157.08 cm**-1
    84:    1175.46 cm**-1
    85:    1180.24 cm**-1
    86:    1193.60 cm**-1
    87:    1196.99 cm**-1
    88:    1205.97 cm**-1
    89:    1209.10 cm**-1
    90:    1233.83 cm**-1
    91:    1263.79 cm**-1
    92:    1266.01 cm**-1
    93:    1271.54 cm**-1
    94:    1290.91 cm**-1
    95:    1321.44 cm**-1
    96:    1322.09 cm**-1
    97:    1341.22 cm**-1
    98:    1381.51 cm**-1
    99:    1387.01 cm**-1
   100:    1396.38 cm**-1
   101:    1417.75 cm**-1
   102:    1419.50 cm**-1
   103:    1427.49 cm**-1
   104:    1437.36 cm**-1
   105:    1453.98 cm**-1
   106:    1478.84 cm**-1
   107:    1478.92 cm**-1
   108:    1484.79 cm**-1
   109:    1487.70 cm**-1
   110:    1488.70 cm**-1
   111:    1490.03 cm**-1
   112:    1495.38 cm**-1
   113:    1495.82 cm**-1
   114:    1502.85 cm**-1
   115:    1509.95 cm**-1
   116:    1510.12 cm**-1
   117:    1514.25 cm**-1
   118:    1517.41 cm**-1
   119:    1531.62 cm**-1
   120:    1533.00 cm**-1
   121:    1550.44 cm**-1
   122:    1588.02 cm**-1
   123:    1657.70 cm**-1
   124:    1686.06 cm**-1
   125:    1753.50 cm**-1
   126:    2211.31 cm**-1
   127:    2621.85 cm**-1
   128:    2973.90 cm**-1
   129:    2982.40 cm**-1
   130:    3080.95 cm**-1
   131:    3084.09 cm**-1
   132:    3084.96 cm**-1
   133:    3088.93 cm**-1
   134:    3102.21 cm**-1
   135:    3106.67 cm**-1
   136:    3164.28 cm**-1
   137:    3164.79 cm**-1
   138:    3166.02 cm**-1
   139:    3171.85 cm**-1
   140:    3173.70 cm**-1
   141:    3176.09 cm**-1
   142:    3180.06 cm**-1
   143:    3188.97 cm**-1
   144:    3191.45 cm**-1
   145:    3197.08 cm**-1
   146:    3210.73 cm**-1
   147:    3220.92 cm**-1
   148:    3233.88 cm**-1
   149:    3242.97 cm**-1
   150:    3255.12 cm**-1
   151:    3268.96 cm**-1
   152:    3295.44 cm**-1

IR SPECTRUM
-----------

 Mode   freq       eps      Int      T**2         TX        TY        TZ
       cm**-1   L/(mol*cm) km/mol    a.u.
----------------------------------------------------------------------------
  8:     36.68   0.000023    0.11  0.000193  ( 0.003015 -0.009983  0.009157)
  9:     38.44   0.000073    0.37  0.000592  (-0.010264 -0.020588  0.007915)
 10:     52.56   0.000297    1.50  0.001763  (-0.001184 -0.027725 -0.031502)
 11:     67.14   0.000217    1.10  0.001010  ( 0.024263  0.019668 -0.005902)
 12:     79.47   0.000325    1.64  0.001277  ( 0.002265  0.031936  0.015884)
 13:     89.35   0.000137    0.69  0.000480  (-0.015215  0.012377  0.009764)
 14:    104.03   0.000281    1.42  0.000844  ( 0.011129 -0.026822 -0.000884)
 15:    115.11   0.000549    2.77  0.001487  ( 0.020747 -0.013402 -0.029614)
 16:    136.76   0.000002    0.01  0.000004  (-0.000145  0.000548  0.001830)
 17:    155.99   0.001124    5.68  0.002248  (-0.024113  0.038138  0.014578)
 18:    171.92   0.000111    0.56  0.000201  ( 0.008612 -0.009577 -0.005912)
 19:    188.48   0.000942    4.76  0.001559  (-0.013600  0.037059 -0.000818)
 20:    212.43   0.000026    0.13  0.000039  ( 0.000390  0.003502 -0.005129)
 21:    227.40   0.000506    2.56  0.000694  (-0.012399  0.015421  0.017404)
 22:    229.56   0.000618    3.12  0.000840  (-0.010556  0.017113  0.020885)
 23:    245.43   0.000003    0.02  0.000004  ( 0.001978 -0.000141 -0.000498)
 24:    270.01   0.000198    1.00  0.000229  (-0.000431  0.014858  0.002833)
 25:    288.69   0.000008    0.04  0.000008  (-0.002014 -0.000466  0.002052)
 26:    294.59   0.000303    1.53  0.000321  (-0.012004 -0.013220 -0.001493)
 27:    299.43   0.000016    0.08  0.000017  ( 0.001357 -0.003584  0.001417)
 28:    311.28   0.000014    0.07  0.000014  (-0.001303  0.001087  0.003393)
 29:    330.50   0.000055    0.28  0.000052  (-0.006764 -0.002512  0.000393)
 30:    337.88   0.000847    4.28  0.000782  ( 0.008922  0.018054  0.019410)
 31:    345.69   0.002273   11.49  0.002052  ( 0.006514 -0.034236 -0.028943)
 32:    368.69   0.000852    4.31  0.000721  ( 0.001177  0.020025  0.017851)
 33:    374.68   0.000484    2.45  0.000403  ( 0.013180  0.014379  0.004774)
 34:    379.20   0.000332    1.68  0.000273  ( 0.011672  0.006878  0.009474)
 35:    396.96   0.000296    1.49  0.000232  (-0.010539  0.009704  0.005217)
 36:    435.98   0.001273    6.43  0.000911  (-0.020467  0.021248 -0.006364)
 37:    463.99   0.004052   20.48  0.002725  ( 0.003859 -0.049180 -0.017070)
 38:    472.06   0.000679    3.43  0.000449  ( 0.000766  0.013711  0.016131)
 39:    496.59   0.001633    8.25  0.001026  ( 0.020788 -0.016577 -0.017874)
 40:    527.59   0.000591    2.99  0.000350  (-0.009125  0.001848 -0.016219)
 41:    537.85   0.001856    9.38  0.001077  ( 0.021872 -0.011605 -0.021532)
 42:    540.45   0.002416   12.21  0.001395  ( 0.035170 -0.011600 -0.004823)
 43:    556.24   0.018065   91.29  0.010135  ( 0.012945 -0.072484 -0.068655)
 44:    576.55   0.000616    3.11  0.000333  ( 0.009623 -0.011348  0.010585)
 45:    587.63   0.001154    5.83  0.000613  ( 0.018105  0.000405 -0.016879)
 46:    593.37   0.000188    0.95  0.000099  ( 0.001900 -0.009564  0.001886)
 47:    612.40   0.004794   24.23  0.002443  ( 0.041710 -0.026521 -0.000127)
 48:    614.86   0.005665   28.63  0.002875  (-0.035556  0.039410 -0.007622)
 49:    681.68   0.002119   10.71  0.000970  ( 0.021103 -0.022864 -0.001445)
 50:    709.76   0.004313   21.79  0.001896  ( 0.026155 -0.009371  0.033530)
 51:    738.58   0.002474   12.50  0.001045  ( 0.022828 -0.022800 -0.002068)
 52:    741.49   0.015239   77.01  0.006413  (-0.058316  0.054304  0.007990)
 53:    761.24   0.004995   25.24  0.002047  (-0.027190  0.027722  0.023230)
 54:    765.22   0.000624    3.15  0.000254  (-0.004145 -0.011197  0.010578)
 55:    775.31   0.008041   40.63  0.003236  (-0.018385  0.031219  0.043862)
 56:    787.34   0.003560   17.99  0.001411  (-0.025293  0.019808 -0.019464)
 57:    797.69   0.001978   10.00  0.000774  (-0.005287  0.016338  0.021884)
 58:    826.02   0.008343   42.16  0.003152  ( 0.041929 -0.028396 -0.024240)
 59:    881.95   0.004722   23.86  0.001671  ( 0.009371 -0.039135  0.007176)
 60:    884.12   0.001198    6.06  0.000423  ( 0.015950  0.011953  0.005072)
 61:    890.71   0.004279   21.62  0.001499  ( 0.037542 -0.009370 -0.001372)
 62:    895.74   0.003664   18.52  0.001277  (-0.026180  0.024302  0.000742)
 63:    900.02   0.001234    6.24  0.000428  ( 0.008013 -0.014661  0.012199)
 64:    948.41   0.000030    0.15  0.000010  (-0.001711 -0.000927 -0.002447)
 65:    948.64   0.000176    0.89  0.000058  (-0.002110  0.004071  0.006076)
 66:    950.18   0.000088    0.44  0.000029  ( 0.000759 -0.000223  0.005317)
 67:    979.51   0.000350    1.77  0.000112  ( 0.010153 -0.000560  0.002854)
 68:    985.16   0.001059    5.35  0.000335  (-0.007898  0.006502 -0.015191)
 69:    994.06   0.003616   18.27  0.001135  (-0.023847  0.023436 -0.004135)
 70:    996.56   0.006677   33.74  0.002091  (-0.029107  0.034601  0.006820)
 71:   1000.23   0.002422   12.24  0.000756  (-0.023475 -0.011839  0.008029)
 72:   1013.30   0.000060    0.31  0.000019  ( 0.000031  0.003940  0.001761)
 73:   1016.75   0.000112    0.56  0.000034  (-0.005676  0.001438 -0.000041)
 74:   1025.38   0.000002    0.01  0.000001  (-0.000316 -0.000782  0.000171)
 75:   1052.90   0.009245   46.72  0.002740  ( 0.040302 -0.033237  0.003333)
 76:   1077.08   0.006963   35.19  0.002017  (-0.015016 -0.019471 -0.037586)
 77:   1089.32   0.001118    5.65  0.000320  (-0.012342 -0.002158 -0.012778)
 78:   1095.95   0.001933    9.77  0.000551  ( 0.011136  0.017939 -0.010231)
 79:   1108.19   0.000184    0.93  0.000052  ( 0.003161 -0.005690  0.003057)
 80:   1121.33   0.002164   10.94  0.000602  ( 0.009848  0.007854 -0.021062)
 81:   1124.59   0.001034    5.22  0.000287  (-0.008910 -0.013967  0.003519)
 82:   1150.65   0.018278   92.37  0.004957  (-0.061383  0.023287 -0.025438)
 83:   1157.08   0.007648   38.65  0.002063  (-0.013988  0.042754  0.006254)
 84:   1175.46   0.076722  387.72  0.020368  (-0.085199  0.113699 -0.013488)
 85:   1180.24   0.068292  345.12  0.018057  (-0.091072  0.097123  0.018165)
 86:   1193.60   0.000510    2.58  0.000133  (-0.011373  0.000912  0.001785)
 87:   1196.99   0.003365   17.01  0.000877  ( 0.004926  0.027210 -0.010617)
 88:   1205.97   0.007764   39.24  0.002009  ( 0.009356 -0.039584 -0.018834)
 89:   1209.10   0.001497    7.57  0.000386  ( 0.007396  0.009953  0.015252)
 90:   1233.83   0.011689   59.07  0.002956  (-0.033833 -0.026346 -0.033432)
 91:   1263.79   0.003385   17.11  0.000836  (-0.020639 -0.014776  0.013839)
 92:   1266.01   0.001190    6.02  0.000293  (-0.009342 -0.003475 -0.013932)
 93:   1271.54   0.003429   17.33  0.000842  ( 0.007019  0.000478  0.028146)
 94:   1290.91   0.000012    0.06  0.000003  ( 0.000245 -0.001392 -0.000993)
 95:   1321.44   0.003089   15.61  0.000730  ( 0.020216  0.017894  0.000808)
 96:   1322.09   0.000094    0.48  0.000022  ( 0.002862 -0.003291  0.001808)
 97:   1341.22   0.003189   16.12  0.000742  ( 0.025118  0.000833  0.010509)
 98:   1381.51   0.006236   31.51  0.001409  (-0.018909  0.032259  0.003216)
 99:   1387.01   0.029150  147.31  0.006558  (-0.058379 -0.047084  0.030553)
100:   1396.38   0.000731    3.70  0.000163  ( 0.007016  0.007872  0.007226)
101:   1417.75   0.006526   32.98  0.001436  (-0.005199 -0.018138 -0.032870)
102:   1419.50   0.000708    3.58  0.000156  ( 0.009395 -0.007090 -0.004126)
103:   1427.49   0.005296   26.77  0.001158  (-0.021458 -0.023621  0.011809)
104:   1437.36   0.005039   25.46  0.001094  ( 0.023174 -0.022158  0.008118)
105:   1453.98   0.000129    0.65  0.000028  ( 0.002841  0.004411  0.000461)
106:   1478.84   0.003672   18.56  0.000775  (-0.000733 -0.027787 -0.001479)
107:   1478.92   0.000087    0.44  0.000018  ( 0.003991 -0.001530 -0.000294)
108:   1484.79   0.004833   24.43  0.001016  (-0.018277 -0.025448 -0.005845)
109:   1487.70   0.003068   15.50  0.000644  ( 0.018342  0.002173  0.017390)
110:   1488.70   0.000562    2.84  0.000118  ( 0.002882  0.008676  0.005850)
111:   1490.03   0.000415    2.10  0.000087  (-0.008883 -0.000304  0.002827)
112:   1495.38   0.002318   11.72  0.000484  ( 0.011138  0.009076 -0.016655)
113:   1495.82   0.005121   25.88  0.001068  (-0.002511  0.030253 -0.012115)
114:   1502.85   0.002685   13.57  0.000558  (-0.019016 -0.011712  0.007667)
115:   1509.95   0.001178    5.95  0.000243  (-0.003955 -0.014994 -0.001736)
116:   1510.12   0.001391    7.03  0.000287  (-0.000498 -0.001406  0.016890)
117:   1514.25   0.000435    2.20  0.000090  (-0.008664 -0.000169  0.003802)
118:   1517.41   0.000978    4.94  0.000201  (-0.010679  0.006257 -0.006929)
119:   1531.62   0.000687    3.47  0.000140  ( 0.000177  0.011213  0.003776)
120:   1533.00   0.001753    8.86  0.000357  (-0.014184  0.009602 -0.007968)
121:   1550.44   0.017467   88.27  0.003516  ( 0.007279 -0.057981  0.010040)
122:   1588.02   0.001209    6.11  0.000238  (-0.000561 -0.002850 -0.015139)
123:   1657.70   0.004580   23.15  0.000862  ( 0.020192 -0.020980  0.003784)
124:   1686.06   0.005038   25.46  0.000932  (-0.009548 -0.027437  0.009408)
125:   1753.50   0.049050  247.88  0.008729  ( 0.037845 -0.074561 -0.041685)
126:   2211.31   0.058995  298.14  0.008325  ( 0.073201 -0.053776  0.008676)
127:   2621.85   0.011703   59.14  0.001393  ( 0.016900  0.017207 -0.028483)
128:   2973.90   0.017219   87.02  0.001807  (-0.033975  0.022469 -0.012151)
129:   2982.40   0.026817  135.52  0.002806  ( 0.025449 -0.040182 -0.023319)
130:   3080.95   0.001259    6.36  0.000128  (-0.003765 -0.002532 -0.010340)
131:   3084.09   0.003486   17.62  0.000353  ( 0.001751 -0.010517 -0.015462)
132:   3084.96   0.002041   10.32  0.000207  ( 0.007532  0.009698 -0.007464)
133:   3088.93   0.006232   31.49  0.000630  (-0.018994  0.015147 -0.006274)
134:   3102.21   0.009558   48.30  0.000961  ( 0.009699  0.017728 -0.023518)
135:   3106.67   0.004961   25.07  0.000498  (-0.016999 -0.014433  0.001021)
136:   3164.28   0.003836   19.39  0.000378  (-0.005099 -0.016536 -0.008882)
137:   3164.79   0.000639    3.23  0.000063  (-0.007258 -0.002907  0.001369)
138:   3166.02   0.001952    9.86  0.000192  (-0.010570 -0.006791  0.005878)
139:   3171.85   0.001515    7.65  0.000149  (-0.002677  0.008810 -0.008015)
140:   3173.70   0.004788   24.20  0.000471  (-0.008244  0.017843 -0.009191)
141:   3176.09   0.006199   31.33  0.000609  (-0.024412  0.003606  0.000344)
142:   3180.06   0.004419   22.33  0.000434  ( 0.010074  0.016283 -0.008184)
143:   3188.97   0.003014   15.23  0.000295  ( 0.004214 -0.014105 -0.008844)
144:   3191.45   0.002831   14.31  0.000277  (-0.007638 -0.006140 -0.013444)
145:   3197.08   0.001481    7.48  0.000145  ( 0.000376 -0.010197  0.006359)
146:   3210.73   0.000422    2.13  0.000041  ( 0.006166 -0.001376  0.001029)
147:   3220.92   0.001031    5.21  0.000100  ( 0.007895  0.006090 -0.000723)
148:   3233.88   0.004326   21.86  0.000417  ( 0.003661  0.019520 -0.004801)
149:   3242.97   0.004963   25.08  0.000478  (-0.021428 -0.002317 -0.003615)
150:   3255.12   0.000508    2.57  0.000049  (-0.001858 -0.002572 -0.006218)
151:   3268.96   0.000706    3.57  0.000067  (-0.000713 -0.000896  0.008130)
152:   3295.44   0.000143    0.72  0.000014  ( 0.000269  0.000815 -0.003573)

--------------------------
THERMOCHEMISTRY AT 298.15K
--------------------------

Temperature         ...   298.15 K
Pressure            ...     1.00 atm
Total Mass          ...   343.10 AMU
Quasi RRHO          ...     True
Cut-Off Frequency   ...     1.00 cm^-1

Throughout the following assumptions are being made:
  (1) The electronic state is orbitally nondegenerate
  (2) There are no thermally accessible electronically excited states
  (3) Hindered rotations indicated by low frequency modes are not
      treated as such but are treated as vibrations and this may
      cause some error
  (4) All equations used are the standard statistical mechanics
      equations for an ideal gas
  (5) All vibrations are strictly harmonic

freq.      36.68  E(vib)   ...       0.54
freq.      38.44  E(vib)   ...       0.54
freq.      52.56  E(vib)   ...       0.52
freq.      67.14  E(vib)   ...       0.50
freq.      79.47  E(vib)   ...       0.49
freq.      89.35  E(vib)   ...       0.47
freq.     104.03  E(vib)   ...       0.46
freq.     115.11  E(vib)   ...       0.44
freq.     136.76  E(vib)   ...       0.42
freq.     155.99  E(vib)   ...       0.40
freq.     171.92  E(vib)   ...       0.38
freq.     188.48  E(vib)   ...       0.36
freq.     212.43  E(vib)   ...       0.34
freq.     227.40  E(vib)   ...       0.33
freq.     229.56  E(vib)   ...       0.32
freq.     245.43  E(vib)   ...       0.31
freq.     270.01  E(vib)   ...       0.29
freq.     288.69  E(vib)   ...       0.27
freq.     294.59  E(vib)   ...       0.27
freq.     299.43  E(vib)   ...       0.26
freq.     311.28  E(vib)   ...       0.25
freq.     330.50  E(vib)   ...       0.24
freq.     337.88  E(vib)   ...       0.24
freq.     345.69  E(vib)   ...       0.23
freq.     368.69  E(vib)   ...       0.21
freq.     374.68  E(vib)   ...       0.21
freq.     379.20  E(vib)   ...       0.21
freq.     396.96  E(vib)   ...       0.20
freq.     435.98  E(vib)   ...       0.17
freq.     463.99  E(vib)   ...       0.16
freq.     472.06  E(vib)   ...       0.15
freq.     496.59  E(vib)   ...       0.14
freq.     527.59  E(vib)   ...       0.13
freq.     537.85  E(vib)   ...       0.12
freq.     540.45  E(vib)   ...       0.12
freq.     556.24  E(vib)   ...       0.12
freq.     576.55  E(vib)   ...       0.11
freq.     587.63  E(vib)   ...       0.10
freq.     593.37  E(vib)   ...       0.10
freq.     612.40  E(vib)   ...       0.10
freq.     614.86  E(vib)   ...       0.10
freq.     681.68  E(vib)   ...       0.08
freq.     709.76  E(vib)   ...       0.07
freq.     738.58  E(vib)   ...       0.06
freq.     741.49  E(vib)   ...       0.06
freq.     761.24  E(vib)   ...       0.06
freq.     765.22  E(vib)   ...       0.06
freq.     775.31  E(vib)   ...       0.05
freq.     787.34  E(vib)   ...       0.05
freq.     797.69  E(vib)   ...       0.05
freq.     826.02  E(vib)   ...       0.04
freq.     881.95  E(vib)   ...       0.04
freq.     884.12  E(vib)   ...       0.04
freq.     890.71  E(vib)   ...       0.04
freq.     895.74  E(vib)   ...       0.03
freq.     900.02  E(vib)   ...       0.03
freq.     948.41  E(vib)   ...       0.03
freq.     948.64  E(vib)   ...       0.03
freq.     950.18  E(vib)   ...       0.03
freq.     979.51  E(vib)   ...       0.03
freq.     985.16  E(vib)   ...       0.02
freq.     994.06  E(vib)   ...       0.02
freq.     996.56  E(vib)   ...       0.02
freq.    1000.23  E(vib)   ...       0.02
freq.    1013.30  E(vib)   ...       0.02
freq.    1016.75  E(vib)   ...       0.02
freq.    1025.38  E(vib)   ...       0.02
freq.    1052.90  E(vib)   ...       0.02
freq.    1077.08  E(vib)   ...       0.02
freq.    1089.32  E(vib)   ...       0.02
freq.    1095.95  E(vib)   ...       0.02
freq.    1108.19  E(vib)   ...       0.02
freq.    1121.33  E(vib)   ...       0.01
freq.    1124.59  E(vib)   ...       0.01
freq.    1150.65  E(vib)   ...       0.01
freq.    1157.08  E(vib)   ...       0.01
freq.    1175.46  E(vib)   ...       0.01
freq.    1180.24  E(vib)   ...       0.01
freq.    1193.60  E(vib)   ...       0.01
freq.    1196.99  E(vib)   ...       0.01
freq.    1205.97  E(vib)   ...       0.01
freq.    1209.10  E(vib)   ...       0.01
freq.    1233.83  E(vib)   ...       0.01
freq.    1263.79  E(vib)   ...       0.01
freq.    1266.01  E(vib)   ...       0.01
freq.    1271.54  E(vib)   ...       0.01
freq.    1290.91  E(vib)   ...       0.01
freq.    1321.44  E(vib)   ...       0.01
freq.    1322.09  E(vib)   ...       0.01
freq.    1341.22  E(vib)   ...       0.01
freq.    1381.51  E(vib)   ...       0.01
freq.    1387.01  E(vib)   ...       0.00
freq.    1396.38  E(vib)   ...       0.00
freq.    1417.75  E(vib)   ...       0.00
freq.    1419.50  E(vib)   ...       0.00
freq.    1427.49  E(vib)   ...       0.00
freq.    1437.36  E(vib)   ...       0.00
freq.    1453.98  E(vib)   ...       0.00
freq.    1478.84  E(vib)   ...       0.00
freq.    1478.92  E(vib)   ...       0.00
freq.    1484.79  E(vib)   ...       0.00
freq.    1487.70  E(vib)   ...       0.00
freq.    1488.70  E(vib)   ...       0.00
freq.    1490.03  E(vib)   ...       0.00
freq.    1495.38  E(vib)   ...       0.00
freq.    1495.82  E(vib)   ...       0.00
freq.    1502.85  E(vib)   ...       0.00
freq.    1509.95  E(vib)   ...       0.00
freq.    1510.12  E(vib)   ...       0.00
freq.    1514.25  E(vib)   ...       0.00
freq.    1517.41  E(vib)   ...       0.00
freq.    1531.62  E(vib)   ...       0.00
freq.    1533.00  E(vib)   ...       0.00
freq.    1550.44  E(vib)   ...       0.00
freq.    1588.02  E(vib)   ...       0.00
freq.    1657.70  E(vib)   ...       0.00
freq.    1686.06  E(vib)   ...       0.00
freq.    1753.50  E(vib)   ...       0.00
freq.    2211.31  E(vib)   ...       0.00
freq.    2621.85  E(vib)   ...       0.00
freq.    2973.90  E(vib)   ...       0.00
freq.    2982.40  E(vib)   ...       0.00
freq.    3080.95  E(vib)   ...       0.00
freq.    3084.09  E(vib)   ...       0.00
freq.    3084.96  E(vib)   ...       0.00
freq.    3088.93  E(vib)   ...       0.00
freq.    3102.21  E(vib)   ...       0.00
freq.    3106.67  E(vib)   ...       0.00
freq.    3164.28  E(vib)   ...       0.00
freq.    3164.79  E(vib)   ...       0.00
freq.    3166.02  E(vib)   ...       0.00
freq.    3171.85  E(vib)   ...       0.00
freq.    3173.70  E(vib)   ...       0.00
freq.    3176.09  E(vib)   ...       0.00
freq.    3180.06  E(vib)   ...       0.00
freq.    3188.97  E(vib)   ...       0.00
freq.    3191.45  E(vib)   ...       0.00
freq.    3197.08  E(vib)   ...       0.00
freq.    3210.73  E(vib)   ...       0.00
freq.    3220.92  E(vib)   ...       0.00
freq.    3233.88  E(vib)   ...       0.00
freq.    3242.97  E(vib)   ...       0.00

Rotational constants in cm-1:     0.011526     0.005401     0.004414

                             ****ORCA TERMINATED NORMALLY****
TOTAL RUN TIME: 0 days 2 hours 54 minutes 55 seconds 190 msec
