                         Program Version 6.0.1  -  RELEASE   -
|  1> # Automatically generated ORCA input
|  2>
|  3> # Number of cores
|  4> %pal nprocs 24 end
|  5> # RAM per core
|  6> %maxcore 2560
|  7>
|  8> ! wB97X-D3
|  9> ! 6-31G**
| 10> ! TightSCF
| 11> ! NoSym
| 12> ! IRC
| 13>
| 14> %geom
| 15>     Calc_Hess true
| 16>     end
| 17>
| 18>
| 19> *xyz 0 1
| 20> C        -2.12133100     -1.92648200      1.30252400
| 21> C        -0.77669400     -1.57857300      1.23349400
| 22> C        -0.35758000     -0.31297500      0.80016200
| 23> C        -1.34619800      0.61994800      0.42196300
| 24> C        -2.69789700      0.26332600      0.50313100
| 25> C        -3.08869100     -0.99757700      0.93985700
| 26> H        -2.41028000     -2.91747000      1.63985400
| 27> H        -0.02997700     -2.31531800      1.51794200
| 28> H        -3.45283000      0.98728900      0.21840300
| 29> H        -4.14372100     -1.24876500      0.99519600
| 30> B         1.18114300      0.10317200      0.78874800
| 31> H         1.68697600     -1.04296200     -0.03528700
| 32> C         1.93636500      0.17494200      2.17443400
| 33> C         1.56091500     -0.31885400      3.42233100
| 34> C         2.37651100      0.26732300      4.40580300
| 35> H         0.75787400     -1.02478100      3.57941400
| 36> C         3.24074300      1.11958000      3.74224900
| 37> H         2.34139800      0.10513600      5.47316000
| 38> H         4.02386300      1.75955800      4.12366000
| 39> H         1.56090300      0.89747100     -0.02163200
| 40> B         2.54806600     -1.54548600      0.69254300
| 41> O         3.86356900     -1.30275900      0.41757100
| 42> O         2.30268600     -2.72939100      1.32534600
| 43> C         4.61856100     -2.25511100      1.20696200
| 44> C         3.57346800     -3.41143800      1.43741900
| 45> C         5.85039000     -2.65920900      0.40989300
| 46> H         6.51355300     -1.79744900      0.30064300
| 47> H         6.40099500     -3.44775000      0.93220600
| 48> H         5.58808600     -3.01534500     -0.58726000
| 49> C         5.03575800     -1.55288100      2.49764000
| 50> H         5.58855200     -0.64519400      2.24158800
| 51> H         4.17295000     -1.26447900      3.10113000
| 52> H         5.68634800     -2.19412900      3.09894200
| 53> C         3.64760700     -4.06530900      2.80958000
| 54> H         2.88750500     -4.84705200      2.88274400
| 55> H         4.62808900     -4.52639100      2.96419000
| 56> H         3.46677600     -3.33891000      3.60314600
| 57> C         3.59304000     -4.47230600      0.33733500
| 58> H         4.50353100     -5.07635000      0.37940000
| 59> H         2.73235700     -5.13245800      0.46760900
| 60> H         3.52110000     -4.01429800     -0.65276300
| 61> N         2.98236600      1.05924800      2.41250200
| 62> C         3.69355600      1.81144500      1.39846600
| 63> H         4.10563000      1.12788000      0.65346200
| 64> H         3.02488200      2.52026800      0.90351200
| 65> H         4.50697900      2.36011500      1.87595000
| 66> C        -1.02709200      2.13685500     -1.50991700
| 67> C        -1.07991700      3.04541300      0.90638600
| 68> C        -0.08603200      3.30008300     -1.87368900
| 69> C        -0.14848400      4.18151300      0.44364200
| 70> C        -0.31904700      4.54312300     -1.02555200
| 71> H        -0.20109600      3.52630900     -2.93987700
| 72> H         0.94622000      2.95939500     -1.72176800
| 73> H        -0.31226700      5.05558800      1.08420200
| 74> H         0.88667400      3.85250800      0.60365100
| 75> H         0.39171700      5.32831500     -1.30503200
| 76> H        -1.31928500      4.95440200     -1.20782900
| 77> N        -0.94951900      1.91615300     -0.04503800
| 78> C        -0.51501300      0.88612500     -2.24304200
| 79> H         0.48064600      0.60736500     -1.89267900
| 80> H        -1.18232300      0.03196700     -2.10431600
| 81> H        -0.45619700      1.09829100     -3.31522800
| 82> C        -2.44355500      2.42372800     -2.06189000
| 83> H        -2.40163700      2.50913900     -3.15310200
| 84> H        -3.12882300      1.60688500     -1.82377800
| 85> H        -2.87214300      3.35079200     -1.67897200
| 86> C        -2.51793500      3.58661500      1.08384500
| 87> H        -3.19122900      2.79437200      1.42037800
| 88> H        -2.52631200      4.37003000      1.84893100
| 89> H        -2.92849300      4.01790100      0.16992700
| 90> C        -0.59678700      2.60399500      2.29557300
| 91> H         0.42980600      2.23407900      2.26043200
| 92> H        -0.62724900      3.46070500      2.97610500
| 93> H        -1.22508800      1.81580700      2.71753700
| 94> *
| 95>
| 96>
| 97>                          ****END OF INPUT****

CARTESIAN COORDINATES (ANGSTROEM)
---------------------------------
  C     -2.121331   -1.926482    1.302524
  C     -0.776694   -1.578573    1.233494
  C     -0.357580   -0.312975    0.800162
  C     -1.346198    0.619948    0.421963
  C     -2.697897    0.263326    0.503131
  C     -3.088691   -0.997577    0.939857
  H     -2.410280   -2.917470    1.639854
  H     -0.029977   -2.315318    1.517942
  H     -3.452830    0.987289    0.218403
  H     -4.143721   -1.248765    0.995196
  B      1.181143    0.103172    0.788748
  H      1.686976   -1.042962   -0.035287
  C      1.936365    0.174942    2.174434
  C      1.560915   -0.318854    3.422331
  C      2.376511    0.267323    4.405803
  H      0.757874   -1.024781    3.579414
  C      3.240743    1.119580    3.742249
  H      2.341398    0.105136    5.473160
  H      4.023863    1.759558    4.123660
  H      1.560903    0.897471   -0.021632
  B      2.548066   -1.545486    0.692543
  O      3.863569   -1.302759    0.417571
  O      2.302686   -2.729391    1.325346
  C      4.618561   -2.255111    1.206962
  C      3.573468   -3.411438    1.437419
  C      5.850390   -2.659209    0.409893
  H      6.513553   -1.797449    0.300643
  H      6.400995   -3.447750    0.932206
  H      5.588086   -3.015345   -0.587260
  C      5.035758   -1.552881    2.497640
  H      5.588552   -0.645194    2.241588
  H      4.172950   -1.264479    3.101130
  H      5.686348   -2.194129    3.098942
  C      3.647607   -4.065309    2.809580
  H      2.887505   -4.847052    2.882744
  H      4.628089   -4.526391    2.964190
  H      3.466776   -3.338910    3.603146
  C      3.593040   -4.472306    0.337335
  H      4.503531   -5.076350    0.379400
  H      2.732357   -5.132458    0.467609
  H      3.521100   -4.014298   -0.652763
  N      2.982366    1.059248    2.412502
  C      3.693556    1.811445    1.398466
  H      4.105630    1.127880    0.653462
  H      3.024882    2.520268    0.903512
  H      4.506979    2.360115    1.875950
  C     -1.027092    2.136855   -1.509917
  C     -1.079917    3.045413    0.906386
  C     -0.086032    3.300083   -1.873689
  C     -0.148484    4.181513    0.443642
  C     -0.319047    4.543123   -1.025552
  H     -0.201096    3.526309   -2.939877
  H      0.946220    2.959395   -1.721768
  H     -0.312267    5.055588    1.084202
  H      0.886674    3.852508    0.603651
  H      0.391717    5.328315   -1.305032
  H     -1.319285    4.954402   -1.207829
  N     -0.949519    1.916153   -0.045038
  C     -0.515013    0.886125   -2.243042
  H      0.480646    0.607365   -1.892679
  H     -1.182323    0.031967   -2.104316
  H     -0.456197    1.098291   -3.315228
  C     -2.443555    2.423728   -2.061890
  H     -2.401637    2.509139   -3.153102
  H     -3.128823    1.606885   -1.823778
  H     -2.872143    3.350792   -1.678972
  C     -2.517935    3.586615    1.083845
  H     -3.191229    2.794372    1.420378
  H     -2.526312    4.370030    1.848931
  H     -2.928493    4.017901    0.169927
  C     -0.596787    2.603995    2.295573
  H      0.429806    2.234079    2.260432
  H     -0.627249    3.460705    2.976105
  H     -1.225088    1.815807    2.717537

 Total Charge           Charge          ....    0
 Multiplicity           Mult            ....    1
 Number of Electrons    NEL             ....  238
 Basis Dimension        Dim             ....  658

ORBITAL ENERGIES
----------------

  NO   OCC          E(Eh)            E(eV)
   0   2.0000     -19.259854      -524.0873
   1   2.0000     -19.256705      -524.0016
   2   2.0000     -14.481696      -394.0670
   3   2.0000     -14.400051      -391.8453
   4   2.0000     -10.357014      -281.8287
   5   2.0000     -10.356638      -281.8185
   6   2.0000     -10.316110      -280.7156
   7   2.0000     -10.309177      -280.5270
   8   2.0000     -10.308408      -280.5060
   9   2.0000     -10.305338      -280.4225
  10   2.0000     -10.297752      -280.2161
  11   2.0000     -10.284050      -279.8432
  12   2.0000     -10.281378      -279.7705
  13   2.0000     -10.281185      -279.7653
  14   2.0000     -10.279824      -279.7282
  15   2.0000     -10.275068      -279.5988
  16   2.0000     -10.272751      -279.5358
  17   2.0000     -10.270391      -279.4715
  18   2.0000     -10.267519      -279.3934
  19   2.0000     -10.267075      -279.3813
  20   2.0000     -10.266566      -279.3675
  21   2.0000     -10.265062      -279.3265
  22   2.0000     -10.263932      -279.2958
  23   2.0000     -10.263785      -279.2918
  24   2.0000     -10.262926      -279.2684
  25   2.0000     -10.255037      -279.0538
  26   2.0000     -10.254574      -279.0411
  27   2.0000     -10.253722      -279.0180
  28   2.0000     -10.252373      -278.9813
  29   2.0000     -10.248987      -278.8891
  30   2.0000      -6.906310      -187.9303
  31   2.0000      -6.823789      -185.6847
  32   2.0000      -1.187658       -32.3178
  33   2.0000      -1.117979       -30.4218
  34   2.0000      -1.096691       -29.8425
  35   2.0000      -1.029436       -28.0124
  36   2.0000      -0.948078       -25.7985
  37   2.0000      -0.930743       -25.3268
  38   2.0000      -0.911758       -24.8102
  39   2.0000      -0.908788       -24.7294
  40   2.0000      -0.900078       -24.4924
  41   2.0000      -0.872664       -23.7464
  42   2.0000      -0.846730       -23.0407
  43   2.0000      -0.841055       -22.8863
  44   2.0000      -0.828068       -22.5329
  45   2.0000      -0.826689       -22.4954
  46   2.0000      -0.811403       -22.0794
  47   2.0000      -0.796341       -21.6695
  48   2.0000      -0.795292       -21.6410
  49   2.0000      -0.786229       -21.3944
  50   2.0000      -0.776500       -21.1296
  51   2.0000      -0.770823       -20.9752
  52   2.0000      -0.742981       -20.2175
  53   2.0000      -0.713828       -19.4242
  54   2.0000      -0.703325       -19.1384
  55   2.0000      -0.685253       -18.6467
  56   2.0000      -0.676371       -18.4050
  57   2.0000      -0.667210       -18.1557
  58   2.0000      -0.665947       -18.1213
  59   2.0000      -0.665503       -18.1093
  60   2.0000      -0.646601       -17.5949
  61   2.0000      -0.630535       -17.1577
  62   2.0000      -0.616913       -16.7870
  63   2.0000      -0.600490       -16.3402
  64   2.0000      -0.583444       -15.8763
  65   2.0000      -0.578807       -15.7501
  66   2.0000      -0.574709       -15.6386
  67   2.0000      -0.568231       -15.4623
  68   2.0000      -0.559455       -15.2236
  69   2.0000      -0.555545       -15.1172
  70   2.0000      -0.549514       -14.9530
  71   2.0000      -0.547804       -14.9065
  72   2.0000      -0.545223       -14.8363
  73   2.0000      -0.539547       -14.6818
  74   2.0000      -0.526848       -14.3363
  75   2.0000      -0.520746       -14.1702
  76   2.0000      -0.519265       -14.1299
  77   2.0000      -0.507573       -13.8118
  78   2.0000      -0.505914       -13.7666
  79   2.0000      -0.503279       -13.6949
  80   2.0000      -0.502415       -13.6714
  81   2.0000      -0.500634       -13.6230
  82   2.0000      -0.499463       -13.5911
  83   2.0000      -0.497235       -13.5305
  84   2.0000      -0.493358       -13.4250
  85   2.0000      -0.486566       -13.2401
  86   2.0000      -0.483481       -13.1562
  87   2.0000      -0.478844       -13.0300
  88   2.0000      -0.475151       -12.9295
  89   2.0000      -0.471890       -12.8408
  90   2.0000      -0.467440       -12.7197
  91   2.0000      -0.465853       -12.6765
  92   2.0000      -0.464850       -12.6492
  93   2.0000      -0.462898       -12.5961
  94   2.0000      -0.460176       -12.5220
  95   2.0000      -0.456283       -12.4161
  96   2.0000      -0.455600       -12.3975
  97   2.0000      -0.447775       -12.1846
  98   2.0000      -0.442419       -12.0388
  99   2.0000      -0.440772       -11.9940
 100   2.0000      -0.438112       -11.9216
 101   2.0000      -0.433596       -11.7988
 102   2.0000      -0.429435       -11.6855
 103   2.0000      -0.426746       -11.6124
 104   2.0000      -0.419887       -11.4257
 105   2.0000      -0.418423       -11.3859
 106   2.0000      -0.405692       -11.0394
 107   2.0000      -0.402784       -10.9603
 108   2.0000      -0.398189       -10.8353
 109   2.0000      -0.391265       -10.6469
 110   2.0000      -0.384876       -10.4730
 111   2.0000      -0.383714       -10.4414
 112   2.0000      -0.368777       -10.0349
 113   2.0000      -0.367788       -10.0080
 114   2.0000      -0.318609        -8.6698
 115   2.0000      -0.312781        -8.5112
 116   2.0000      -0.306904        -8.3513
 117   2.0000      -0.285453        -7.7676
 118   2.0000      -0.270787        -7.3685
 119   0.0000       0.053119         1.4454
 120   0.0000       0.091585         2.4922
 121   0.0000       0.094397         2.5687
 122   0.0000       0.144934         3.9439
 123   0.0000       0.155161         4.2222

MULLIKEN ATOMIC CHARGES
-----------------------
   0 C :   -0.111412
   1 C :   -0.179403
   2 C :    0.049808
   3 C :    0.135665
   4 C :   -0.103995
   5 C :   -0.142477
   6 H :    0.110630
   7 H :    0.124823
   8 H :    0.105843
   9 H :    0.113150
  10 B :    0.034253
  11 H :   -0.011175
  12 C :    0.057402
  13 C :   -0.141113
  14 C :   -0.196792
  15 H :    0.123140
  16 C :    0.042072
  17 H :    0.116039
  18 H :    0.130340
  19 H :   -0.052770
  20 B :    0.559152
  21 O :   -0.479287
  22 O :   -0.477343
  23 C :    0.201286
  24 C :    0.213810
  25 C :   -0.351932
  26 H :    0.131495
  27 H :    0.118125
  28 H :    0.131831
  29 C :   -0.343257
  30 H :    0.119358
  31 H :    0.143998
  32 H :    0.113989
  33 C :   -0.352104
  34 H :    0.132285
  35 H :    0.115542
  36 H :    0.141280
  37 C :   -0.351005
  38 H :    0.117366
  39 H :    0.136680
  40 H :    0.130272
  41 N :   -0.399685
  42 C :   -0.210466
  43 H :    0.160994
  44 H :    0.151562
  45 H :    0.125718
  46 C :    0.152368
  47 C :    0.149306
  48 C :   -0.186404
  49 C :   -0.186060
  50 C :   -0.229843
  51 H :    0.098251
  52 H :    0.106079
  53 H :    0.099488
  54 H :    0.099591
  55 H :    0.109588
  56 H :    0.101267
  57 N :   -0.507434
  58 C :   -0.336426
  59 H :    0.120511
  60 H :    0.123977
  61 H :    0.103366
  62 C :   -0.327689
  63 H :    0.104180
  64 H :    0.111861
  65 H :    0.101161
  66 C :   -0.327683
  67 H :    0.112676
  68 H :    0.104103
  69 H :    0.100195
  70 C :   -0.329816
  71 H :    0.122401
  72 H :    0.102054
  73 H :    0.125239
Sum of atomic charges:   -0.0000000

LOEWDIN ATOMIC CHARGES
----------------------
   0 C :   -0.087300
   1 C :   -0.078015
   2 C :   -0.038549
   3 C :    0.038630
   4 C :   -0.096055
   5 C :   -0.084699
   6 H :    0.075092
   7 H :    0.081061
   8 H :    0.075042
   9 H :    0.075702
  10 B :   -0.209241
  11 H :    0.121446
  12 C :   -0.048228
  13 C :   -0.088893
  14 C :   -0.152193
  15 H :    0.081812
  16 C :   -0.060337
  17 H :    0.076926
  18 H :    0.076160
  19 H :    0.011623
  20 B :   -0.062490
  21 O :   -0.109788
  22 O :   -0.109584
  23 C :    0.092078
  24 C :    0.093040
  25 C :   -0.204229
  26 H :    0.082936
  27 H :    0.077599
  28 H :    0.081342
  29 C :   -0.206701
  30 H :    0.078525
  31 H :    0.091104
  32 H :    0.075720
  33 C :   -0.204294
  34 H :    0.083304
  35 H :    0.076447
  36 H :    0.086127
  37 C :   -0.206101
  38 H :    0.076315
  39 H :    0.084523
  40 H :    0.080025
  41 N :    0.042212
  42 C :   -0.114920
  43 H :    0.088976
  44 H :    0.082994
  45 H :    0.079566
  46 C :    0.036833
  47 C :    0.035278
  48 C :   -0.122578
  49 C :   -0.121894
  50 C :   -0.136520
  51 H :    0.066790
  52 H :    0.068756
  53 H :    0.067431
  54 H :    0.065243
  55 H :    0.070569
  56 H :    0.064116
  57 N :   -0.136444
  58 C :   -0.200250
  59 H :    0.077596
  60 H :    0.076688
  61 H :    0.069936
  62 C :   -0.216813
  63 H :    0.070013
  64 H :    0.072511
  65 H :    0.064973
  66 C :   -0.216685
  67 H :    0.073006
  68 H :    0.069770
  69 H :    0.064737
  70 C :   -0.197475
  71 H :    0.081413
  72 H :    0.070145
  73 H :    0.078146

  Mayer bond orders larger than 0.100000
B(  0-C ,  1-C ) :   1.4373 B(  0-C ,  5-C ) :   1.4461 B(  0-C ,  6-H ) :   0.9508
B(  1-C ,  2-C ) :   1.3764 B(  1-C ,  7-H ) :   0.9259 B(  2-C ,  3-C ) :   1.4245
B(  2-C , 10-B ) :   0.9866 B(  3-C ,  4-C ) :   1.4037 B(  3-C , 57-N ) :   0.9645
B(  4-C ,  5-C ) :   1.4299 B(  4-C ,  8-H ) :   0.9402 B(  5-C ,  9-H ) :   0.9476
B( 10-B , 11-H ) :   0.2760 B( 10-B , 12-C ) :   0.8973 B( 10-B , 19-H ) :   0.9292
B( 10-B , 20-B ) :   0.2521 B( 11-H , 20-B ) :   0.6597 B( 12-C , 13-C ) :   1.4460
B( 12-C , 20-B ) :   0.1441 B( 12-C , 41-N ) :   1.0815 B( 13-C , 14-C ) :   1.4024
B( 13-C , 15-H ) :   0.9443 B( 14-C , 16-C ) :   1.4941 B( 14-C , 17-H ) :   0.9531
B( 16-C , 18-H ) :   0.9445 B( 16-C , 41-N ) :   1.2211 B( 20-B , 21-O ) :   1.1194
B( 20-B , 22-O ) :   1.1151 B( 21-O , 23-C ) :   0.8578 B( 22-O , 24-C ) :   0.8533
B( 23-C , 24-C ) :   0.9580 B( 23-C , 25-C ) :   1.0068 B( 23-C , 29-C ) :   0.9921
B( 24-C , 33-C ) :   1.0064 B( 24-C , 37-C ) :   0.9947 B( 25-C , 26-H ) :   0.9580
B( 25-C , 27-H ) :   0.9557 B( 25-C , 28-H ) :   0.9546 B( 29-C , 30-H ) :   0.9575
B( 29-C , 31-H ) :   0.9398 B( 29-C , 32-H ) :   0.9538 B( 33-C , 34-H ) :   0.9573
B( 33-C , 35-H ) :   0.9557 B( 33-C , 36-H ) :   0.9515 B( 37-C , 38-H ) :   0.9530
B( 37-C , 39-H ) :   0.9559 B( 37-C , 40-H ) :   0.9576 B( 41-N , 42-C ) :   0.9280
B( 42-C , 43-H ) :   0.9383 B( 42-C , 44-H ) :   0.9465 B( 42-C , 45-H ) :   0.9624
B( 46-C , 48-C ) :   0.9822 B( 46-C , 57-N ) :   0.9458 B( 46-C , 58-C ) :   0.9996
B( 46-C , 62-C ) :   0.9737 B( 47-C , 49-C ) :   0.9819 B( 47-C , 57-N ) :   0.9472
B( 47-C , 66-C ) :   0.9731 B( 47-C , 70-C ) :   0.9995 B( 48-C , 50-C ) :   0.9979
B( 48-C , 51-H ) :   0.9537 B( 48-C , 52-H ) :   0.9533 B( 49-C , 50-C ) :   0.9982
B( 49-C , 53-H ) :   0.9538 B( 49-C , 54-H ) :   0.9510 B( 50-C , 55-H ) :   0.9591
B( 50-C , 56-H ) :   0.9549 B( 58-C , 59-H ) :   0.9543 B( 58-C , 60-H ) :   0.9560
B( 58-C , 61-H ) :   0.9598 B( 62-C , 63-H ) :   0.9579 B( 62-C , 64-H ) :   0.9581
B( 62-C , 65-H ) :   0.9589 B( 66-C , 67-H ) :   0.9583 B( 66-C , 68-H ) :   0.9581
B( 66-C , 69-H ) :   0.9590 B( 70-C , 71-H ) :   0.9489 B( 70-C , 72-H ) :   0.9594
B( 70-C , 73-H ) :   0.9552

Dispersion correction           -0.053644159
FINAL SINGLE POINT ENERGY     -1325.538328770854
Dispersion correction             ... done (  0.2 sec)

DIPOLE MOMENT
-------------

Method             : SCF
Type of density    : Electron Density
Multiplicity       :   1
Irrep              :   0
Energy             : -1325.4846846116849974 Eh
Relativity type    :
Basis              : AO
                                X                 Y                 Z
Electronic contribution:     -1.524677566     -10.260049453       7.323048606
Nuclear contribution   :      3.018954104       9.814429037      -7.079657169
                        -----------------------------------------
Total Dipole Moment    :      1.494276538      -0.445620417       0.243391437
                        -----------------------------------------
Magnitude (a.u.)       :      1.578188620
Magnitude (Debye)      :      4.011436677

--------------------------
THERMOCHEMISTRY AT 298.15K
--------------------------

Temperature         ...   298.15 K
Pressure            ...     1.00 atm
Total Mass          ...   436.25 AMU
Quasi RRHO          ...     True
Cut-Off Frequency   ...     1.00 cm^-1

Throughout the following assumptions are being made:
  (1) The electronic state is orbitally nondegenerate
  (2) There are no thermally accessible electronically excited states
  (3) Hindered rotations indicated by low frequency modes are not
      treated as such but are treated as vibrations and this may
      cause some error
  (4) All equations used are the standard statistical mechanics
      equations for an ideal gas
  (5) All vibrations are strictly harmonic

freq.      21.13  E(vib)   ...       0.56
freq.      27.73  E(vib)   ...       0.55
freq.      36.86  E(vib)   ...       0.54
freq.      55.99  E(vib)   ...       0.52
freq.      75.01  E(vib)   ...       0.49
freq.      83.92  E(vib)   ...       0.48
freq.      89.25  E(vib)   ...       0.47
freq.      97.64  E(vib)   ...       0.46
freq.     100.74  E(vib)   ...       0.46
freq.     121.00  E(vib)   ...       0.44
freq.     138.34  E(vib)   ...       0.42
freq.     149.62  E(vib)   ...       0.40
freq.     161.99  E(vib)   ...       0.39
freq.     183.88  E(vib)   ...       0.37
freq.     190.52  E(vib)   ...       0.36
freq.     201.05  E(vib)   ...       0.35
freq.     206.90  E(vib)   ...       0.35
freq.     215.50  E(vib)   ...       0.34
freq.     243.41  E(vib)   ...       0.31
freq.     247.64  E(vib)   ...       0.31
freq.     253.77  E(vib)   ...       0.30
freq.     257.31  E(vib)   ...       0.30
freq.     262.83  E(vib)   ...       0.29
freq.     275.09  E(vib)   ...       0.28
freq.     284.22  E(vib)   ...       0.28
freq.     288.80  E(vib)   ...       0.27
freq.     295.77  E(vib)   ...       0.27
freq.     300.40  E(vib)   ...       0.26
freq.     311.63  E(vib)   ...       0.25
freq.     312.79  E(vib)   ...       0.25
freq.     321.38  E(vib)   ...       0.25
freq.     331.20  E(vib)   ...       0.24
freq.     342.14  E(vib)   ...       0.23
freq.     349.47  E(vib)   ...       0.23
freq.     353.23  E(vib)   ...       0.22
freq.     362.64  E(vib)   ...       0.22
freq.     370.41  E(vib)   ...       0.21
freq.     392.16  E(vib)   ...       0.20
freq.     396.02  E(vib)   ...       0.20
freq.     403.22  E(vib)   ...       0.19
freq.     407.95  E(vib)   ...       0.19
freq.     422.50  E(vib)   ...       0.18
freq.     435.06  E(vib)   ...       0.17
freq.     461.33  E(vib)   ...       0.16
freq.     470.97  E(vib)   ...       0.15
freq.     476.12  E(vib)   ...       0.15
freq.     496.50  E(vib)   ...       0.14
freq.     518.57  E(vib)   ...       0.13
freq.     526.54  E(vib)   ...       0.13
freq.     534.22  E(vib)   ...       0.13
freq.     556.96  E(vib)   ...       0.12
freq.     572.49  E(vib)   ...       0.11
freq.     586.43  E(vib)   ...       0.11
freq.     588.57  E(vib)   ...       0.10
freq.     592.72  E(vib)   ...       0.10
freq.     620.52  E(vib)   ...       0.09
freq.     627.70  E(vib)   ...       0.09
freq.     644.64  E(vib)   ...       0.09
freq.     676.40  E(vib)   ...       0.08
freq.     678.58  E(vib)   ...       0.08
freq.     686.98  E(vib)   ...       0.07
freq.     748.22  E(vib)   ...       0.06
freq.     750.82  E(vib)   ...       0.06
freq.     759.01  E(vib)   ...       0.06
freq.     774.04  E(vib)   ...       0.05
freq.     786.12  E(vib)   ...       0.05
freq.     789.80  E(vib)   ...       0.05
freq.     805.98  E(vib)   ...       0.05
freq.     827.84  E(vib)   ...       0.04
freq.     829.23  E(vib)   ...       0.04
freq.     835.11  E(vib)   ...       0.04
freq.     871.86  E(vib)   ...       0.04
freq.     890.58  E(vib)   ...       0.04
freq.     890.99  E(vib)   ...       0.04
freq.     903.20  E(vib)   ...       0.03
freq.     904.85  E(vib)   ...       0.03
freq.     915.91  E(vib)   ...       0.03
freq.     921.22  E(vib)   ...       0.03
freq.     928.18  E(vib)   ...       0.03
freq.     936.30  E(vib)   ...       0.03
freq.     938.00  E(vib)   ...       0.03
freq.     951.91  E(vib)   ...       0.03
freq.     955.12  E(vib)   ...       0.03
freq.     965.53  E(vib)   ...       0.03
freq.     975.11  E(vib)   ...       0.03
freq.     987.46  E(vib)   ...       0.02
freq.     992.34  E(vib)   ...       0.02
freq.     994.70  E(vib)   ...       0.02
freq.     995.79  E(vib)   ...       0.02
freq.    1011.98  E(vib)   ...       0.02
freq.    1016.17  E(vib)   ...       0.02
freq.    1019.42  E(vib)   ...       0.02
freq.    1020.93  E(vib)   ...       0.02
freq.    1031.88  E(vib)   ...       0.02
freq.    1034.13  E(vib)   ...       0.02
freq.    1043.58  E(vib)   ...       0.02
freq.    1069.94  E(vib)   ...       0.02
freq.    1077.29  E(vib)   ...       0.02
freq.    1086.92  E(vib)   ...       0.02
freq.    1091.19  E(vib)   ...       0.02
freq.    1096.14  E(vib)   ...       0.02
freq.    1101.68  E(vib)   ...       0.02
freq.    1113.23  E(vib)   ...       0.01
freq.    1128.11  E(vib)   ...       0.01
freq.    1142.59  E(vib)   ...       0.01
freq.    1158.20  E(vib)   ...       0.01
freq.    1163.28  E(vib)   ...       0.01
freq.    1168.59  E(vib)   ...       0.01
freq.    1188.15  E(vib)   ...       0.01
freq.    1192.93  E(vib)   ...       0.01
freq.    1197.42  E(vib)   ...       0.01
freq.    1208.05  E(vib)   ...       0.01
freq.    1210.95  E(vib)   ...       0.01
freq.    1220.59  E(vib)   ...       0.01
freq.    1239.44  E(vib)   ...       0.01
freq.    1249.16  E(vib)   ...       0.01
freq.    1256.09  E(vib)   ...       0.01
freq.    1263.30  E(vib)   ...       0.01
freq.    1265.81  E(vib)   ...       0.01
freq.    1266.08  E(vib)   ...       0.01
freq.    1273.86  E(vib)   ...       0.01
freq.    1295.13  E(vib)   ...       0.01
freq.    1306.77  E(vib)   ...       0.01
freq.    1310.42  E(vib)   ...       0.01
freq.    1322.64  E(vib)   ...       0.01
freq.    1323.55  E(vib)   ...       0.01
freq.    1330.68  E(vib)   ...       0.01
freq.    1345.99  E(vib)   ...       0.01
freq.    1366.65  E(vib)   ...       0.01
freq.    1384.19  E(vib)   ...       0.00
freq.    1389.43  E(vib)   ...       0.00
freq.    1394.97  E(vib)   ...       0.00
freq.    1401.51  E(vib)   ...       0.00
freq.    1402.41  E(vib)   ...       0.00
freq.    1408.41  E(vib)   ...       0.00
freq.    1415.95  E(vib)   ...       0.00
freq.    1424.06  E(vib)   ...       0.00
freq.    1425.83  E(vib)   ...       0.00
freq.    1429.78  E(vib)   ...       0.00
freq.    1430.96  E(vib)   ...       0.00
freq.    1434.86  E(vib)   ...       0.00
freq.    1436.41  E(vib)   ...       0.00

Rotational constants in cm-1:     0.007887     0.003176     0.002947

                      ***********************HURRAY********************
                      ***********************HURRAY********************
                             ****ORCA TERMINATED NORMALLY****
TOTAL RUN TIME: 0 days 8 hours 12 minutes 4 seconds 957 msec
