                         Program Version 6.0.1  -  RELEASE   -
|  1> # Automatically generated ORCA input
|  2>
|  3> # Number of cores
|  4> %pal nprocs 24 end
|  5> # RAM per core
|  6> %maxcore 2560
|  7>
|  8> ! wB97X-D3
|  9> ! 6-31G**
| 10> ! TightSCF
| 11> ! Freq
| 12> ! NoSym
| 13> ! Opt
| 14>
| 15> %geom
| 16>   Calc_Hess true
| 17> end
| 18>
| 19>
| 20> *xyz 0 1
| 21> C        -1.31173658     -2.08087348      0.52911260
| 22> C        -0.03660390     -1.66287601      0.93372120
| 23> C         0.98669284     -2.60814128      0.71935774
| 24> C         0.76586082     -3.85557612      0.15687018
| 25> C        -0.52209161     -4.22484541     -0.22730450
| 26> C        -1.56664490     -3.33369424     -0.03607811
| 27> H         1.99366000     -2.32815845      1.01858584
| 28> H         1.59419176     -4.54456983      0.01267370
| 29> H        -0.71419612     -5.19582345     -0.67297446
| 30> H        -2.56692628     -3.62223839     -0.33029185
| 31> H        -1.90990660     -0.24939019      1.00063238
| 32> B         0.37560544     -0.27203840      1.69502010
| 33> N        -2.43050349     -1.11705165      0.73113825
| 34> C        -3.29438097     -1.39559389      1.99960550
| 35> C        -3.18448597     -0.67422685     -0.55166140
| 36> C        -4.21750796     -0.18413124      2.21585116
| 37> C        -2.34853026     -1.51610957      3.19712548
| 38> C        -4.10415580     -2.69094027      1.91938066
| 39> C        -4.03790188      0.53826020     -0.14897313
| 40> C        -4.04259048     -1.76885686     -1.20163456
| 41> C        -2.16522847     -0.22119081     -1.59772507
| 42> H        -4.88559420     -0.43782025      3.04555619
| 43> H        -3.60918030      0.66694415      2.54151183
| 44> C        -5.00946704      0.23224408      0.98221088
| 45> H        -1.71674717     -2.40432659      3.13181444
| 46> H        -1.69319956     -0.65229435      3.30374277
| 47> H        -2.96477768     -1.59696566      4.09705470
| 48> H        -3.49241152     -3.53795998      1.60641765
| 49> H        -4.45792277     -2.90588663      2.93065704
| 50> H        -4.98692245     -2.62151430      1.28480402
| 51> H        -4.56377655      0.88088870     -1.04622837
| 52> H        -3.36946280      1.35529431      0.15762106
| 53> H        -4.72392730     -1.27120089     -1.89743347
| 54> H        -3.43094830     -2.45626813     -1.78755470
| 55> H        -4.65104492     -2.34814241     -0.51319062
| 56> H        -1.68003605      0.70753108     -1.29916577
| 57> H        -1.40985480     -0.98582541     -1.79219330
| 58> H        -2.70498291     -0.03890735     -2.53179327
| 59> H        -5.60300785      1.12178405      1.21329728
| 60> H        -5.72224104     -0.54624504      0.68296721
| 61> H         1.53447779     -0.02533558      1.39281293
| 62> C        -0.47329641      1.08110446      1.39391102
| 63> C        -1.22138219      1.90336197      2.22959903
| 64> C        -1.37807587      3.17655269      1.61961460
| 65> H        -1.56287465      1.62532756      3.21987642
| 66> H        -1.84650638      4.05480903      2.04343551
| 67> H         0.33824730     -0.48644523      2.89695835
| 68> C        -0.74364408      3.10421191      0.40237328
| 69> H        -0.57794386      3.85733591     -0.35627840
| 70> N        -0.23049360      1.84174993      0.26006407
| 71> C         0.65193088      1.43312268     -0.81227001
| 72> H         0.38071065      1.96115667     -1.73095597
| 73> H         1.69576851      1.63841692     -0.56280452
| 74> H         0.55266834      0.35942095     -0.97980220
| 75> *
| 76>
| 77>
| 78>                          ****END OF INPUT****
 Total Charge           Charge          ....    0
 Multiplicity           Mult            ....    1
 Number of Electrons    NEL             ....  170
Dispersion correction           -0.038457440
FINAL SINGLE POINT ENERGY      -914.937143864409
Dispersion correction             ... done (  0.1 sec)
Dispersion correction           -0.038477562
FINAL SINGLE POINT ENERGY      -914.940183959061
Dispersion correction             ... done (  0.0 sec)
Dispersion correction           -0.038420741
FINAL SINGLE POINT ENERGY      -914.941289810083
Dispersion correction             ... done (  0.0 sec)
FINAL SINGLE POINT ENERGY      -914.941960837146
FINAL SINGLE POINT ENERGY      -914.942137866081
FINAL SINGLE POINT ENERGY      -914.942189579685
FINAL SINGLE POINT ENERGY      -914.942207192280
Dispersion correction             ... done (  0.0 sec)
Dispersion correction           -0.038490041
FINAL SINGLE POINT ENERGY      -914.942211689529
Dispersion correction             ... done (  0.0 sec)
Dispersion correction           -0.038484177
FINAL SINGLE POINT ENERGY      -914.942213327190
Dispersion correction             ... done (  0.0 sec)
                    ***********************HURRAY********************

CARTESIAN COORDINATES (ANGSTROEM)
---------------------------------
  C     -1.340925   -2.055081    0.567442
  C     -0.045141   -1.624032    0.895805
  C      0.964910   -2.562123    0.600245
  C      0.719640   -3.814475    0.057707
  C     -0.587277   -4.203134   -0.223812
  C     -1.621153   -3.316317    0.033192
  H      1.987406   -2.273308    0.827217
  H      1.545051   -4.492089   -0.143746
  H     -0.804206   -5.182017   -0.640266
  H     -2.637233   -3.617944   -0.183740
  H     -1.974704   -0.244066    1.104694
  B      0.436589   -0.256249    1.685501
  N     -2.471557   -1.110656    0.809079
  C     -3.336602   -1.448388    2.059028
  C     -3.210035   -0.622539   -0.473353
  C     -4.268519   -0.251162    2.308660
  C     -2.380792   -1.597929    3.244428
  C     -4.138536   -2.746214    1.936660
  C     -4.122099    0.537257   -0.042245
  C     -4.007123   -1.702089   -1.212574
  C     -2.148445   -0.087267   -1.434731
  H     -4.924596   -0.518808    3.143551
  H     -3.662700    0.599302    2.640333
  C     -5.076541    0.173831    1.088452
  H     -1.761598   -2.492997    3.154491
  H     -1.710414   -0.743484    3.347106
  H     -2.979877   -1.681785    4.155585
  H     -3.497867   -3.604358    1.732443
  H     -4.607951   -2.919250    2.908926
  H     -4.939175   -2.709292    1.198954
  H     -4.670937    0.868962   -0.929813
  H     -3.491080    1.378539    0.272659
  H     -4.537666   -1.199222   -2.025973
  H     -3.354441   -2.445780   -1.669440
  H     -4.755626   -2.210793   -0.608104
  H     -1.591834    0.737536   -0.988291
  H     -1.449952   -0.868715   -1.741934
  H     -2.655189    0.290139   -2.327327
  H     -5.691477    1.042471    1.343469
  H     -5.773294   -0.615344    0.780054
  H      1.632430   -0.129738    1.462690
  C     -0.317691    1.127051    1.320645
  C     -1.270772    1.878408    1.999444
  C     -1.550517    3.064195    1.261419
  H     -1.662667    1.626539    2.978040
  H     -2.233256    3.861031    1.525050
  H      0.297371   -0.469639    2.882297
  C     -0.755320    3.019482    0.143184
  H     -0.637644    3.721813   -0.671258
  N     -0.024555    1.857706    0.182515
  C      1.002107    1.498891   -0.773842
  H      0.906284    2.131822   -1.659175
  H      1.998282    1.627032   -0.342100
  H      0.895614    0.452335   -1.070178

 Multiplicity           Mult            ....    1
 Number of Electrons    NEL             ....  170
 Basis Dimension        Dim             ....  477

ORBITAL ENERGIES
----------------

  NO   OCC          E(Eh)            E(eV)
   0   2.0000     -14.544693      -395.7812
   1   2.0000     -14.453072      -393.2881
   2   2.0000     -10.367131      -282.1040
   3   2.0000     -10.366107      -282.0761
   4   2.0000     -10.325899      -280.9820
   5   2.0000     -10.301729      -280.3243
   6   2.0000     -10.301505      -280.3182
   7   2.0000     -10.300835      -280.3000
   8   2.0000     -10.300104      -280.2801
   9   2.0000     -10.299387      -280.2606
  10   2.0000     -10.298693      -280.2417
  11   2.0000     -10.292681      -280.0781
  12   2.0000     -10.284564      -279.8572
  13   2.0000     -10.283947      -279.8404
  14   2.0000     -10.280209      -279.7387
  15   2.0000     -10.279815      -279.7280
  16   2.0000     -10.278947      -279.7044
  17   2.0000     -10.267670      -279.3975
  18   2.0000     -10.261273      -279.2234
  19   2.0000     -10.251478      -278.9569
  20   2.0000     -10.245454      -278.7930
  21   2.0000     -10.237871      -278.5866
  22   2.0000      -6.728676      -183.0966
  23   2.0000      -1.118677       -30.4408
  24   2.0000      -1.069238       -29.0954
  25   2.0000      -0.970533       -26.4096
  26   2.0000      -0.958939       -26.0941
  27   2.0000      -0.943700       -25.6794
  28   2.0000      -0.889436       -24.2028
  29   2.0000      -0.886445       -24.1214
  30   2.0000      -0.853887       -23.2355
  31   2.0000      -0.845099       -22.9963
  32   2.0000      -0.826160       -22.4810
  33   2.0000      -0.820364       -22.3232
  34   2.0000      -0.809530       -22.0284
  35   2.0000      -0.802560       -21.8388
  36   2.0000      -0.773046       -21.0357
  37   2.0000      -0.747756       -20.3475
  38   2.0000      -0.715965       -19.4824
  39   2.0000      -0.713685       -19.4203
  40   2.0000      -0.701293       -19.0831
  41   2.0000      -0.673821       -18.3356
  42   2.0000      -0.650274       -17.6949
  43   2.0000      -0.633557       -17.2400
  44   2.0000      -0.623273       -16.9601
  45   2.0000      -0.611235       -16.6326
  46   2.0000      -0.604826       -16.4581
  47   2.0000      -0.601512       -16.3680
  48   2.0000      -0.590711       -16.0741
  49   2.0000      -0.579575       -15.7710
  50   2.0000      -0.563412       -15.3312
  51   2.0000      -0.548601       -14.9282
  52   2.0000      -0.546526       -14.8717
  53   2.0000      -0.540305       -14.7024
  54   2.0000      -0.536262       -14.5924
  55   2.0000      -0.531015       -14.4496
  56   2.0000      -0.525532       -14.3004
  57   2.0000      -0.517037       -14.0693
  58   2.0000      -0.509174       -13.8553
  59   2.0000      -0.505106       -13.7446
  60   2.0000      -0.502602       -13.6765
  61   2.0000      -0.496208       -13.5025
  62   2.0000      -0.486614       -13.2414
  63   2.0000      -0.481034       -13.0896
  64   2.0000      -0.476919       -12.9776
  65   2.0000      -0.472351       -12.8533
  66   2.0000      -0.467562       -12.7230
  67   2.0000      -0.464131       -12.6296
  68   2.0000      -0.462424       -12.5832
  69   2.0000      -0.459609       -12.5066
  70   2.0000      -0.451566       -12.2877
  71   2.0000      -0.448799       -12.2124
  72   2.0000      -0.443410       -12.0658
  73   2.0000      -0.435156       -11.8412
  74   2.0000      -0.432524       -11.7696
  75   2.0000      -0.425020       -11.5654
  76   2.0000      -0.422056       -11.4847
  77   2.0000      -0.406559       -11.0630
  78   2.0000      -0.368531       -10.0282
  79   2.0000      -0.360271        -9.8035
  80   2.0000      -0.336846        -9.1661
  81   2.0000      -0.329260        -8.9596
  82   2.0000      -0.296407        -8.0656
  83   2.0000      -0.294114        -8.0032
  84   2.0000      -0.258645        -7.0381
  85   0.0000       0.073792         2.0080
  86   0.0000       0.085368         2.3230
  87   0.0000       0.134885         3.6704
  88   0.0000       0.138637         3.7725
  89   0.0000       0.149084         4.0568

MULLIKEN ATOMIC CHARGES
-----------------------
   0 C :    0.080944
   1 C :    0.067661
   2 C :   -0.178695
   3 C :   -0.095634
   4 C :   -0.157019
   5 C :   -0.105092
   6 H :    0.121227
   7 H :    0.117274
   8 H :    0.116584
   9 H :    0.107906
  10 H :    0.325777
  11 B :   -0.016714
  12 N :   -0.523507
  13 C :    0.101147
  14 C :    0.103601
  15 C :   -0.212215
  16 C :   -0.342074
  17 C :   -0.342930
  18 C :   -0.217491
  19 C :   -0.341939
  20 C :   -0.346016
  21 H :    0.125886
  22 H :    0.136482
  23 C :   -0.228933
  24 H :    0.151301
  25 H :    0.160081
  26 H :    0.121220
  27 H :    0.144297
  28 H :    0.136622
  29 H :    0.116107
  30 H :    0.122849
  31 H :    0.151428
  32 H :    0.134430
  33 H :    0.142196
  34 H :    0.116735
  35 H :    0.157844
  36 H :    0.144470
  37 H :    0.124611
  38 H :    0.136048
  39 H :    0.107157
  40 H :   -0.168134
  41 C :    0.157060
  42 C :   -0.246921
  43 C :   -0.178991
  44 H :    0.094284
  45 H :    0.098326
  46 H :   -0.129229
  47 C :    0.011896
  48 H :    0.113475
  49 N :   -0.428646
  50 C :   -0.196787
  51 H :    0.116282
  52 H :    0.156422
  53 H :    0.137334
Sum of atomic charges:   -0.0000000

LOEWDIN ATOMIC CHARGES
----------------------
   0 C :   -0.007453
   1 C :   -0.008728
   2 C :   -0.062000
   3 C :   -0.076188
   4 C :   -0.097389
   5 C :   -0.104722
   6 H :    0.084246
   7 H :    0.078479
   8 H :    0.077308
   9 H :    0.075761
  10 H :    0.183929
  11 B :   -0.469549
  12 N :    0.092850
  13 C :    0.048556
  14 C :    0.049621
  15 C :   -0.129942
  16 C :   -0.199914
  17 C :   -0.207300
  18 C :   -0.131620
  19 C :   -0.208131
  20 C :   -0.204460
  21 H :    0.081320
  22 H :    0.083907
  23 C :   -0.133536
  24 H :    0.090804
  25 H :    0.095421
  26 H :    0.080802
  27 H :    0.087627
  28 H :    0.088693
  29 H :    0.070615
  30 H :    0.080099
  31 H :    0.090457
  32 H :    0.087570
  33 H :    0.085610
  34 H :    0.072557
  35 H :    0.094409
  36 H :    0.086324
  37 H :    0.082492
  38 H :    0.083472
  39 H :    0.065564
  40 H :   -0.026682
  41 C :   -0.021340
  42 C :   -0.181679
  43 C :   -0.159972
  44 H :    0.063074
  45 H :    0.069040
  46 H :   -0.015911
  47 C :   -0.095859
  48 H :    0.069139
  49 N :    0.013216
  50 C :   -0.113237
  51 H :    0.073611
  52 H :    0.086594
  53 H :    0.082448

  Mayer bond orders larger than 0.100000
B(  0-C ,  1-C ) :   1.4059 B(  0-C ,  5-C ) :   1.3748 B(  0-C , 12-N ) :   0.7956
B(  1-C ,  2-C ) :   1.3891 B(  1-C , 11-B ) :   0.8966 B(  2-C ,  3-C ) :   1.4545
B(  2-C ,  6-H ) :   0.9387 B(  3-C ,  4-C ) :   1.4232 B(  3-C ,  7-H ) :   0.9491
B(  4-C ,  5-C ) :   1.4681 B(  4-C ,  8-H ) :   0.9465 B(  5-C ,  9-H ) :   0.9392
B( 10-H , 12-N ) :   0.7407 B( 11-B , 40-H ) :   0.8889 B( 11-B , 41-C ) :   0.9340
B( 11-B , 46-H ) :   0.8976 B( 12-N , 13-C ) :   0.8185 B( 12-N , 14-C ) :   0.8197
B( 13-C , 15-C ) :   0.9810 B( 13-C , 16-C ) :   1.0039 B( 13-C , 17-C ) :   1.0011
B( 14-C , 18-C ) :   0.9831 B( 14-C , 19-C ) :   0.9989 B( 14-C , 20-C ) :   1.0069
B( 15-C , 21-H ) :   0.9497 B( 15-C , 22-H ) :   0.9367 B( 15-C , 23-C ) :   0.9909
B( 16-C , 24-H ) :   0.9493 B( 16-C , 25-H ) :   0.9291 B( 16-C , 26-H ) :   0.9525
B( 17-C , 27-H ) :   0.9459 B( 17-C , 28-H ) :   0.9520 B( 17-C , 29-H ) :   0.9528
B( 18-C , 23-C ) :   0.9904 B( 18-C , 30-H ) :   0.9499 B( 18-C , 31-H ) :   0.9245
B( 19-C , 32-H ) :   0.9516 B( 19-C , 33-H ) :   0.9497 B( 19-C , 34-H ) :   0.9518
B( 20-C , 35-H ) :   0.9325 B( 20-C , 36-H ) :   0.9474 B( 20-C , 37-H ) :   0.9547
B( 23-C , 38-H ) :   0.9550 B( 23-C , 39-H ) :   0.9558 B( 41-C , 42-C ) :   1.4623
B( 41-C , 49-N ) :   1.1180 B( 42-C , 43-C ) :   1.3081 B( 42-C , 44-H ) :   0.9461
B( 43-C , 45-H ) :   0.9552 B( 43-C , 47-C ) :   1.5794 B( 47-C , 48-H ) :   0.9481
B( 47-C , 49-N ) :   1.1409 B( 49-N , 50-C ) :   0.9341 B( 50-C , 51-H ) :   0.9630
B( 50-C , 52-H ) :   0.9519 B( 50-C , 53-H ) :   0.9526

Dispersion correction           -0.038484475
FINAL SINGLE POINT ENERGY      -914.942213713361

DIPOLE MOMENT
-------------

Method             : SCF
Type of density    : Electron Density
Multiplicity       :   1
Irrep              :   0
Energy             :  -914.9037292387794196 Eh
Relativity type    :
Basis              : AO
                                X                 Y                 Z
Electronic contribution:     10.280023955       0.419808758       0.246443690
Nuclear contribution   :    -12.928632856      -1.335996753      -1.543455594
                        -----------------------------------------
Total Dipole Moment    :     -2.648608901      -0.916187995      -1.297011904
                        -----------------------------------------
Magnitude (a.u.)       :      3.088166031
Magnitude (Debye)      :      7.849494240

VIBRATIONAL FREQUENCIES
-----------------------

Scaling factor for frequencies =  1.000000000  (already applied!)

     0:       0.00 cm**-1
     1:       0.00 cm**-1
     2:       0.00 cm**-1
     3:       0.00 cm**-1
     4:       0.00 cm**-1
     5:       0.00 cm**-1
     6:      27.32 cm**-1
     7:      64.95 cm**-1
     8:      72.48 cm**-1
     9:      81.65 cm**-1
    10:      99.20 cm**-1
    11:     105.59 cm**-1
    12:     117.57 cm**-1
    13:     131.53 cm**-1
    14:     152.16 cm**-1
    15:     170.70 cm**-1
    16:     192.74 cm**-1
    17:     208.53 cm**-1
    18:     231.82 cm**-1
    19:     240.15 cm**-1
    20:     252.42 cm**-1
    21:     271.72 cm**-1
    22:     289.78 cm**-1
    23:     291.71 cm**-1
    24:     300.55 cm**-1
    25:     309.28 cm**-1
    26:     320.36 cm**-1
    27:     323.70 cm**-1
    28:     353.32 cm**-1
    29:     359.96 cm**-1
    30:     370.28 cm**-1
    31:     399.38 cm**-1
    32:     404.45 cm**-1
    33:     413.28 cm**-1
    34:     447.23 cm**-1
    35:     468.57 cm**-1
    36:     487.61 cm**-1
    37:     498.10 cm**-1
    38:     519.51 cm**-1
    39:     563.34 cm**-1
    40:     565.66 cm**-1
    41:     577.32 cm**-1
    42:     624.05 cm**-1
    43:     635.04 cm**-1
    44:     654.50 cm**-1
    45:     700.88 cm**-1
    46:     716.22 cm**-1
    47:     728.81 cm**-1
    48:     746.22 cm**-1
    49:     750.19 cm**-1
    50:     765.77 cm**-1
    51:     776.75 cm**-1
    52:     802.39 cm**-1
    53:     811.33 cm**-1
    54:     811.98 cm**-1
    55:     835.33 cm**-1
    56:     868.10 cm**-1
    57:     875.19 cm**-1
    58:     886.39 cm**-1
    59:     909.10 cm**-1
    60:     911.14 cm**-1
    61:     922.60 cm**-1
    62:     925.24 cm**-1
    63:     952.95 cm**-1
    64:     962.66 cm**-1
    65:     983.70 cm**-1
    66:     987.36 cm**-1
    67:    1003.44 cm**-1
    68:    1006.45 cm**-1
    69:    1012.70 cm**-1
    70:    1024.87 cm**-1
    71:    1027.17 cm**-1
    72:    1028.37 cm**-1
    73:    1036.01 cm**-1
    74:    1079.98 cm**-1
    75:    1085.11 cm**-1
    76:    1089.44 cm**-1
    77:    1094.20 cm**-1
    78:    1100.96 cm**-1
    79:    1112.33 cm**-1
    80:    1119.25 cm**-1
    81:    1130.83 cm**-1
    82:    1154.74 cm**-1
    83:    1158.31 cm**-1
    84:    1161.77 cm**-1
    85:    1188.40 cm**-1
    86:    1193.71 cm**-1
    87:    1198.10 cm**-1
    88:    1217.40 cm**-1
    89:    1223.78 cm**-1
    90:    1248.88 cm**-1
    91:    1251.14 cm**-1
    92:    1259.71 cm**-1
    93:    1267.41 cm**-1
    94:    1280.12 cm**-1
    95:    1289.07 cm**-1
    96:    1303.20 cm**-1
    97:    1322.91 cm**-1
    98:    1354.20 cm**-1
    99:    1355.31 cm**-1
   100:    1386.22 cm**-1
   101:    1404.47 cm**-1
   102:    1415.22 cm**-1
   103:    1419.98 cm**-1
   104:    1424.80 cm**-1
   105:    1436.19 cm**-1
   106:    1445.73 cm**-1
   107:    1452.26 cm**-1
   108:    1456.66 cm**-1
   109:    1471.76 cm**-1
   110:    1480.82 cm**-1
   111:    1484.41 cm**-1
   112:    1488.09 cm**-1
   113:    1493.89 cm**-1
   114:    1495.41 cm**-1
   115:    1496.70 cm**-1
   116:    1499.21 cm**-1
   117:    1503.14 cm**-1
   118:    1511.89 cm**-1
   119:    1513.17 cm**-1
   120:    1518.94 cm**-1
   121:    1520.92 cm**-1
   122:    1527.21 cm**-1
   123:    1533.90 cm**-1
   124:    1536.22 cm**-1
   125:    1541.83 cm**-1
   126:    1544.34 cm**-1
   127:    1551.55 cm**-1
   128:    1599.47 cm**-1
   129:    1655.14 cm**-1
   130:    1689.85 cm**-1
   131:    2415.86 cm**-1
   132:    2441.52 cm**-1
   133:    3073.22 cm**-1
   134:    3080.16 cm**-1
   135:    3080.31 cm**-1
   136:    3089.40 cm**-1
   137:    3093.86 cm**-1
   138:    3094.95 cm**-1
   139:    3106.41 cm**-1
   140:    3111.57 cm**-1
   141:    3130.90 cm**-1
   142:    3134.32 cm**-1
   143:    3145.44 cm**-1
   144:    3163.56 cm**-1
   145:    3171.39 cm**-1
   146:    3175.55 cm**-1
   147:    3176.95 cm**-1
   148:    3178.78 cm**-1
   149:    3183.51 cm**-1
   150:    3188.85 cm**-1
   151:    3203.31 cm**-1
   152:    3208.53 cm**-1
   153:    3213.06 cm**-1
   154:    3214.22 cm**-1
   155:    3224.56 cm**-1
   156:    3234.06 cm**-1
   157:    3236.80 cm**-1
   158:    3252.63 cm**-1
   159:    3269.22 cm**-1
   160:    3276.32 cm**-1
   161:    3289.88 cm**-1

IR SPECTRUM
-----------

 Mode   freq       eps      Int      T**2         TX        TY        TZ
       cm**-1   L/(mol*cm) km/mol    a.u.
----------------------------------------------------------------------------
  6:     27.32   0.000096    0.49  0.001098  ( 0.007120 -0.032326 -0.001622)
  7:     64.95   0.000220    1.11  0.001057  ( 0.011998 -0.023637 -0.018814)
  8:     72.48   0.000020    0.10  0.000086  ( 0.000474  0.001846 -0.009069)
  9:     81.65   0.000221    1.12  0.000845  (-0.012020  0.011797 -0.023702)
 10:     99.20   0.000686    3.47  0.002158  (-0.022821 -0.040361 -0.002845)
 11:    105.59   0.000080    0.40  0.000235  (-0.003314 -0.013310 -0.006851)
 12:    117.57   0.000058    0.29  0.000154  (-0.012004  0.003146 -0.000479)
 13:    131.53   0.000026    0.13  0.000062  (-0.003188 -0.004080 -0.005912)
 14:    152.16   0.000028    0.14  0.000058  ( 0.001668 -0.002226 -0.007056)
 15:    170.70   0.001533    7.75  0.002802  (-0.051336 -0.006832 -0.010947)
 16:    192.74   0.000122    0.62  0.000197  (-0.005025  0.003587 -0.012624)
 17:    208.53   0.000497    2.51  0.000743  ( 0.019372  0.018961  0.002919)
 18:    231.82   0.000266    1.34  0.000358  (-0.009723 -0.010806 -0.012097)
 19:    240.15   0.000270    1.37  0.000351  ( 0.010863  0.003503  0.014869)
 20:    252.42   0.000121    0.61  0.000149  (-0.009980 -0.006435  0.002894)
 21:    271.72   0.001232    6.23  0.001415  ( 0.021145  0.027293  0.014937)
 22:    289.78   0.000396    2.00  0.000426  ( 0.003988  0.019562  0.005248)
 23:    291.71   0.000132    0.67  0.000141  ( 0.006649  0.006245  0.007598)
 24:    300.55   0.000184    0.93  0.000191  ( 0.010439  0.009039 -0.000339)
 25:    309.28   0.000111    0.56  0.000112  ( 0.000482  0.000009 -0.010579)
 26:    320.36   0.002560   12.94  0.002494  (-0.022223 -0.017179  0.041287)
 27:    323.70   0.000609    3.08  0.000588  (-0.018505 -0.004317 -0.015049)
 28:    353.32   0.000294    1.49  0.000260  (-0.005336 -0.008935  0.012314)
 29:    359.96   0.000490    2.48  0.000425  ( 0.018696  0.000432  0.008668)
 30:    370.28   0.000439    2.22  0.000370  ( 0.015377  0.006549 -0.009503)
 31:    399.38   0.000188    0.95  0.000147  (-0.010830  0.004797 -0.002512)
 32:    404.45   0.000275    1.39  0.000212  ( 0.002928 -0.011311 -0.008680)
 33:    413.28   0.000086    0.44  0.000065  ( 0.003392  0.002988 -0.006687)
 34:    447.23   0.000228    1.15  0.000159  ( 0.011254 -0.004518 -0.003509)
 35:    468.57   0.000086    0.44  0.000057  ( 0.005545  0.005085  0.000869)
 36:    487.61   0.000041    0.21  0.000026  ( 0.004519 -0.002400 -0.000527)
 37:    498.10   0.000031    0.16  0.000019  ( 0.002933  0.001346  0.003001)
 38:    519.51   0.000366    1.85  0.000220  (-0.014673 -0.001891 -0.000967)
 39:    563.34   0.000425    2.15  0.000235  (-0.007913  0.001441 -0.013059)
 40:    565.66   0.001615    8.16  0.000891  ( 0.002918  0.010873 -0.027641)
 41:    577.32   0.000434    2.19  0.000234  (-0.012465  0.008886 -0.000137)
 42:    624.05   0.000562    2.84  0.000281  ( 0.002410 -0.010166 -0.013103)
 43:    635.04   0.000257    1.30  0.000127  (-0.010074 -0.004796  0.001426)
 44:    654.50   0.000519    2.62  0.000248  ( 0.007053 -0.014056 -0.000588)
 45:    700.88   0.000356    1.80  0.000159  ( 0.011510  0.003210  0.003976)
 46:    716.22   0.004202   21.24  0.001831  (-0.027955 -0.031175  0.008809)
 47:    728.81   0.008279   41.84  0.003545  (-0.038371 -0.024874 -0.038131)
 48:    746.22   0.000098    0.50  0.000041  (-0.002402  0.005189  0.002887)
 49:    750.19   0.000182    0.92  0.000076  ( 0.005745  0.006242  0.001929)
 50:    765.77   0.000941    4.75  0.000383  (-0.016444 -0.005445 -0.009130)
 51:    776.75   0.007229   36.53  0.002904  ( 0.021797  0.034897 -0.034803)
 52:    802.39   0.000226    1.14  0.000088  ( 0.006383  0.002584 -0.006350)
 53:    811.33   0.002313   11.69  0.000890  (-0.015804 -0.007334 -0.024212)
 54:    811.98   0.003351   16.94  0.001288  ( 0.025820  0.023771  0.007497)
 55:    835.33   0.000804    4.06  0.000300  ( 0.012917  0.011458 -0.001493)
 56:    868.10   0.000984    4.97  0.000354  (-0.014854 -0.011156 -0.002913)
 57:    875.19   0.000582    2.94  0.000207  ( 0.009958  0.005034  0.009108)
 58:    886.39   0.000140    0.71  0.000049  ( 0.006183 -0.002769  0.001806)
 59:    909.10   0.000190    0.96  0.000065  (-0.000167  0.008036 -0.000672)
 60:    911.14   0.000791    3.99  0.000271  (-0.000190 -0.000893 -0.016429)
 61:    922.60   0.000962    4.86  0.000325  ( 0.002937 -0.002936  0.017557)
 62:    925.24   0.000256    1.29  0.000086  (-0.005583  0.005677  0.004789)
 63:    952.95   0.000028    0.14  0.000009  ( 0.000424  0.002796  0.001054)
 64:    962.66   0.000093    0.47  0.000030  (-0.005139  0.001003 -0.001647)
 65:    983.70   0.000529    2.67  0.000168  (-0.004667 -0.007226 -0.009680)
 66:    987.36   0.000926    4.68  0.000293  (-0.008302  0.000535  0.014953)
 67:   1003.44   0.001198    6.05  0.000372  (-0.017755  0.007198  0.002317)
 68:   1006.45   0.002306   11.65  0.000715  ( 0.002415  0.017389 -0.020169)
 69:   1012.70   0.002319   11.72  0.000715  ( 0.001593 -0.010497 -0.024533)
 70:   1024.87   0.000158    0.80  0.000048  ( 0.004327  0.005025  0.002052)
 71:   1027.17   0.000843    4.26  0.000256  (-0.004642 -0.010824  0.010835)
 72:   1028.37   0.000332    1.68  0.000101  (-0.005317 -0.008515  0.000049)
 73:   1036.01   0.000582    2.94  0.000175  (-0.012369 -0.002644 -0.003912)
 74:   1079.98   0.003484   17.61  0.001007  ( 0.017748  0.025697  0.005602)
 75:   1085.11   0.003828   19.34  0.001101  (-0.006447  0.031557  0.007960)
 76:   1089.44   0.000143    0.72  0.000041  ( 0.003127 -0.005311  0.001721)
 77:   1094.20   0.000885    4.47  0.000252  ( 0.000934  0.003647 -0.015438)
 78:   1100.96   0.000212    1.07  0.000060  (-0.007674  0.000946  0.000568)
 79:   1112.33   0.008888   44.92  0.002494  (-0.003356  0.048559  0.011152)
 80:   1119.25   0.003088   15.61  0.000861  ( 0.020023 -0.018979 -0.010000)
 81:   1130.83   0.000830    4.19  0.000229  ( 0.002022  0.008359 -0.012454)
 82:   1154.74   0.000380    1.92  0.000103  (-0.004168  0.006059  0.006968)
 83:   1158.31   0.003894   19.68  0.001049  ( 0.002229  0.009626 -0.030848)
 84:   1161.77   0.000176    0.89  0.000047  (-0.002793 -0.006215  0.000864)
 85:   1188.40   0.002758   13.94  0.000724  (-0.017503 -0.019555 -0.005948)
 86:   1193.71   0.002158   10.90  0.000564  (-0.016200 -0.015629 -0.007576)
 87:   1198.10   0.005173   26.14  0.001347  (-0.022573  0.027588  0.008757)
 88:   1217.40   0.005420   27.39  0.001389  (-0.011494  0.034488 -0.008231)
 89:   1223.78   0.003391   17.14  0.000865  ( 0.029356  0.000069  0.001690)
 90:   1248.88   0.002079   10.51  0.000520  (-0.002293 -0.008215  0.021139)
 91:   1251.14   0.001346    6.80  0.000336  ( 0.003924  0.016911 -0.005858)
 92:   1259.71   0.000521    2.63  0.000129  ( 0.009287  0.004739  0.004501)
 93:   1267.41   0.000075    0.38  0.000018  ( 0.002928 -0.002689 -0.001605)
 94:   1280.12   0.001549    7.83  0.000378  (-0.018793  0.004410 -0.002256)
 95:   1289.07   0.003961   20.02  0.000959  (-0.004470 -0.013628  0.027445)
 96:   1303.20   0.004346   21.96  0.001041  (-0.025331  0.019914  0.001553)
 97:   1322.91   0.000236    1.19  0.000056  (-0.003688  0.002921  0.005792)
 98:   1354.20   0.004479   22.64  0.001032  (-0.029702  0.004213  0.011496)
 99:   1355.31   0.003135   15.84  0.000722  (-0.002136 -0.019280 -0.018587)
100:   1386.22   0.000130    0.65  0.000029  ( 0.000160  0.003954 -0.003673)
101:   1404.47   0.001148    5.80  0.000255  (-0.003180  0.012303  0.009675)
102:   1415.22   0.000888    4.49  0.000196  ( 0.010483  0.009029  0.002112)
103:   1419.98   0.001144    5.78  0.000251  (-0.001079  0.002814 -0.015566)
104:   1424.80   0.001672    8.45  0.000366  (-0.015465 -0.010575  0.003915)
105:   1436.19   0.004642   23.46  0.001009  (-0.029580 -0.011554  0.000318)
106:   1445.73   0.007640   38.61  0.001649  ( 0.010113 -0.009609  0.038138)
107:   1452.26   0.004828   24.40  0.001037  (-0.031400  0.005825  0.004186)
108:   1456.66   0.002825   14.28  0.000605  (-0.000475 -0.024591 -0.000557)
109:   1471.76   0.001689    8.54  0.000358  ( 0.016766 -0.005654 -0.006717)
110:   1480.82   0.000337    1.71  0.000071  ( 0.002283 -0.007709  0.002544)
111:   1484.41   0.000897    4.53  0.000189  ( 0.009761  0.002848 -0.009232)
112:   1488.09   0.000692    3.50  0.000145  (-0.001258  0.008264 -0.008671)
113:   1493.89   0.000289    1.46  0.000060  ( 0.002330 -0.003341  0.006622)
114:   1495.41   0.000826    4.17  0.000172  ( 0.008888  0.004371  0.008618)
115:   1496.70   0.002011   10.16  0.000419  (-0.011020  0.002799  0.017027)
116:   1499.21   0.000325    1.64  0.000068  ( 0.002706 -0.007431 -0.002276)
117:   1503.14   0.000363    1.83  0.000075  ( 0.004808  0.006609 -0.002920)
118:   1511.89   0.002292   11.58  0.000473  (-0.011010 -0.015139 -0.011075)
119:   1513.17   0.001657    8.37  0.000342  ( 0.011164  0.002549 -0.014509)
120:   1518.94   0.006274   31.71  0.001289  (-0.029674  0.011755  0.016439)
121:   1520.92   0.005808   29.35  0.001192  (-0.002794 -0.026928  0.021417)
122:   1527.21   0.001015    5.13  0.000207  ( 0.009688  0.000483  0.010648)
123:   1533.90   0.003175   16.05  0.000646  (-0.020771  0.006925  0.012905)
124:   1536.22   0.001597    8.07  0.000324  (-0.014056  0.001439  0.011173)
125:   1541.83   0.000314    1.58  0.000063  ( 0.007418  0.002634 -0.001224)
126:   1544.34   0.001086    5.49  0.000219  ( 0.006371 -0.009791  0.009111)
127:   1551.55   0.002697   13.63  0.000542  ( 0.016716 -0.014180 -0.007864)
128:   1599.47   0.001282    6.48  0.000250  ( 0.007743 -0.002739 -0.013517)
129:   1655.14   0.000504    2.54  0.000095  (-0.009251  0.002462 -0.001815)
130:   1689.85   0.000182    0.92  0.000034  ( 0.003146 -0.003716 -0.003160)
131:   2415.86   0.032759  165.55  0.004232  (-0.050181  0.002309 -0.041329)
132:   2441.52   0.036507  184.49  0.004666  (-0.046939 -0.016248  0.046891)
133:   3073.22   0.002228   11.26  0.000226  ( 0.012095 -0.004540  0.007702)
134:   3080.16   0.011751   59.38  0.001191  (-0.029936 -0.005193  0.016352)
135:   3080.31   0.001780    8.99  0.000180  (-0.007461 -0.002700 -0.010832)
136:   3089.40   0.000816    4.13  0.000082  (-0.003845  0.004193  0.007077)
137:   3093.86   0.005168   26.12  0.000521  ( 0.004182  0.003173 -0.022221)
138:   3094.95   0.001851    9.36  0.000187  ( 0.000519  0.001766  0.013538)
139:   3106.41   0.002868   14.49  0.000288  ( 0.005007  0.005494 -0.015260)
140:   3111.57   0.004986   25.20  0.000500  ( 0.017003  0.013311  0.005806)
141:   3130.90   0.004308   21.77  0.000429  (-0.016946  0.011743 -0.002085)
142:   3134.32   0.003387   17.12  0.000337  ( 0.000708  0.004309  0.017838)
143:   3145.44   0.004595   23.22  0.000456  (-0.012668 -0.017025  0.002358)
144:   3163.56   0.001241    6.27  0.000122  ( 0.008105  0.002704  0.007028)
145:   3171.39   0.099666  503.67  0.009807  (-0.051911 -0.083605 -0.011069)
146:   3175.55   0.001840    9.30  0.000181  (-0.001266  0.010382 -0.008450)
147:   3176.95   0.005854   29.58  0.000575  (-0.002482 -0.023534  0.003876)
148:   3178.78   0.004427   22.37  0.000435  (-0.004417  0.019927  0.004240)
149:   3183.51   0.004149   20.97  0.000407  ( 0.001004 -0.004226  0.019695)
150:   3188.85   0.004458   22.53  0.000436  (-0.008066  0.018697  0.004654)
151:   3203.31   0.000589    2.98  0.000057  (-0.007214  0.002306 -0.000034)
152:   3208.53   0.000707    3.57  0.000069  ( 0.004238 -0.006858 -0.001937)
153:   3213.06   0.002716   13.72  0.000264  ( 0.011507  0.011105  0.002837)
154:   3214.22   0.001955    9.88  0.000190  (-0.006736  0.004571 -0.011115)
155:   3224.56   0.001986   10.04  0.000192  ( 0.012876  0.003872  0.003374)
156:   3234.06   0.007331   37.05  0.000707  (-0.020727  0.015594  0.005886)
157:   3236.80   0.002685   13.57  0.000259  ( 0.012677  0.009900  0.000412)
158:   3252.63   0.002975   15.03  0.000285  (-0.004858 -0.012755  0.009956)
159:   3269.22   0.001591    8.04  0.000152  (-0.008018 -0.001063  0.009300)
160:   3276.32   0.001281    6.47  0.000122  ( 0.008120  0.007014  0.002624)
161:   3289.88   0.001780    8.99  0.000169  ( 0.004843 -0.012056  0.000172)

--------------------------
THERMOCHEMISTRY AT 298.15K
--------------------------

Temperature         ...   298.15 K
Pressure            ...     1.00 atm
Total Mass          ...   310.29 AMU
Quasi RRHO          ...     True
Cut-Off Frequency   ...     1.00 cm^-1

Throughout the following assumptions are being made:
  (1) The electronic state is orbitally nondegenerate
  (2) There are no thermally accessible electronically excited states
  (3) Hindered rotations indicated by low frequency modes are not
      treated as such but are treated as vibrations and this may
      cause some error
  (4) All equations used are the standard statistical mechanics
      equations for an ideal gas
  (5) All vibrations are strictly harmonic

freq.      27.32  E(vib)   ...       0.55
freq.      64.95  E(vib)   ...       0.50
freq.      72.48  E(vib)   ...       0.49
freq.      81.65  E(vib)   ...       0.48
freq.      99.20  E(vib)   ...       0.46
freq.     105.59  E(vib)   ...       0.45
freq.     117.57  E(vib)   ...       0.44
freq.     131.53  E(vib)   ...       0.42
freq.     152.16  E(vib)   ...       0.40
freq.     170.70  E(vib)   ...       0.38
freq.     192.74  E(vib)   ...       0.36
freq.     208.53  E(vib)   ...       0.34
freq.     231.82  E(vib)   ...       0.32
freq.     240.15  E(vib)   ...       0.31
freq.     252.42  E(vib)   ...       0.30
freq.     271.72  E(vib)   ...       0.29
freq.     289.78  E(vib)   ...       0.27
freq.     291.71  E(vib)   ...       0.27
freq.     300.55  E(vib)   ...       0.26
freq.     309.28  E(vib)   ...       0.26
freq.     320.36  E(vib)   ...       0.25
freq.     323.70  E(vib)   ...       0.25
freq.     353.32  E(vib)   ...       0.22
freq.     359.96  E(vib)   ...       0.22
freq.     370.28  E(vib)   ...       0.21
freq.     399.38  E(vib)   ...       0.19
freq.     404.45  E(vib)   ...       0.19
freq.     413.28  E(vib)   ...       0.19
freq.     447.23  E(vib)   ...       0.17
freq.     468.57  E(vib)   ...       0.16
freq.     487.61  E(vib)   ...       0.15
freq.     498.10  E(vib)   ...       0.14
freq.     519.51  E(vib)   ...       0.13
freq.     563.34  E(vib)   ...       0.11
freq.     565.66  E(vib)   ...       0.11
freq.     577.32  E(vib)   ...       0.11
freq.     624.05  E(vib)   ...       0.09
freq.     635.04  E(vib)   ...       0.09
freq.     654.50  E(vib)   ...       0.08
freq.     700.88  E(vib)   ...       0.07
freq.     716.22  E(vib)   ...       0.07
freq.     728.81  E(vib)   ...       0.06
freq.     746.22  E(vib)   ...       0.06
freq.     750.19  E(vib)   ...       0.06
freq.     765.77  E(vib)   ...       0.06
freq.     776.75  E(vib)   ...       0.05
freq.     802.39  E(vib)   ...       0.05
freq.     811.33  E(vib)   ...       0.05
freq.     811.98  E(vib)   ...       0.05
freq.     835.33  E(vib)   ...       0.04
freq.     868.10  E(vib)   ...       0.04
freq.     875.19  E(vib)   ...       0.04
freq.     886.39  E(vib)   ...       0.04
freq.     909.10  E(vib)   ...       0.03
freq.     911.14  E(vib)   ...       0.03
freq.     922.60  E(vib)   ...       0.03
freq.     925.24  E(vib)   ...       0.03
freq.     952.95  E(vib)   ...       0.03
freq.     962.66  E(vib)   ...       0.03
freq.     983.70  E(vib)   ...       0.02
freq.     987.36  E(vib)   ...       0.02
freq.    1003.44  E(vib)   ...       0.02
freq.    1006.45  E(vib)   ...       0.02
freq.    1012.70  E(vib)   ...       0.02
freq.    1024.87  E(vib)   ...       0.02
freq.    1027.17  E(vib)   ...       0.02
freq.    1028.37  E(vib)   ...       0.02
freq.    1036.01  E(vib)   ...       0.02
freq.    1079.98  E(vib)   ...       0.02
freq.    1085.11  E(vib)   ...       0.02
freq.    1089.44  E(vib)   ...       0.02
freq.    1094.20  E(vib)   ...       0.02
freq.    1100.96  E(vib)   ...       0.02
freq.    1112.33  E(vib)   ...       0.01
freq.    1119.25  E(vib)   ...       0.01
freq.    1130.83  E(vib)   ...       0.01
freq.    1154.74  E(vib)   ...       0.01
freq.    1158.31  E(vib)   ...       0.01
freq.    1161.77  E(vib)   ...       0.01
freq.    1188.40  E(vib)   ...       0.01
freq.    1193.71  E(vib)   ...       0.01
freq.    1198.10  E(vib)   ...       0.01
freq.    1217.40  E(vib)   ...       0.01
freq.    1223.78  E(vib)   ...       0.01
freq.    1248.88  E(vib)   ...       0.01
freq.    1251.14  E(vib)   ...       0.01
freq.    1259.71  E(vib)   ...       0.01
freq.    1267.41  E(vib)   ...       0.01
freq.    1280.12  E(vib)   ...       0.01
freq.    1289.07  E(vib)   ...       0.01
freq.    1303.20  E(vib)   ...       0.01
freq.    1322.91  E(vib)   ...       0.01
freq.    1354.20  E(vib)   ...       0.01
freq.    1355.31  E(vib)   ...       0.01
freq.    1386.22  E(vib)   ...       0.00
freq.    1404.47  E(vib)   ...       0.00
freq.    1415.22  E(vib)   ...       0.00
freq.    1419.98  E(vib)   ...       0.00
freq.    1424.80  E(vib)   ...       0.00
freq.    1436.19  E(vib)   ...       0.00
freq.    1445.73  E(vib)   ...       0.00
freq.    1452.26  E(vib)   ...       0.00
freq.    1456.66  E(vib)   ...       0.00
freq.    1471.76  E(vib)   ...       0.00
freq.    1480.82  E(vib)   ...       0.00
freq.    1484.41  E(vib)   ...       0.00
freq.    1488.09  E(vib)   ...       0.00
freq.    1493.89  E(vib)   ...       0.00
freq.    1495.41  E(vib)   ...       0.00
freq.    1496.70  E(vib)   ...       0.00
freq.    1499.21  E(vib)   ...       0.00
freq.    1503.14  E(vib)   ...       0.00
freq.    1511.89  E(vib)   ...       0.00
freq.    1513.17  E(vib)   ...       0.00
freq.    1518.94  E(vib)   ...       0.00
freq.    1520.92  E(vib)   ...       0.00
freq.    1527.21  E(vib)   ...       0.00
freq.    1533.90  E(vib)   ...       0.00
freq.    1536.22  E(vib)   ...       0.00
freq.    1541.83  E(vib)   ...       0.00
freq.    1544.34  E(vib)   ...       0.00
freq.    1551.55  E(vib)   ...       0.00
freq.    1599.47  E(vib)   ...       0.00
freq.    1655.14  E(vib)   ...       0.00
freq.    1689.85  E(vib)   ...       0.00
freq.    2415.86  E(vib)   ...       0.00
freq.    2441.52  E(vib)   ...       0.00
freq.    3073.22  E(vib)   ...       0.00
freq.    3080.16  E(vib)   ...       0.00
freq.    3080.31  E(vib)   ...       0.00
freq.    3089.40  E(vib)   ...       0.00
freq.    3093.86  E(vib)   ...       0.00
freq.    3094.95  E(vib)   ...       0.00
freq.    3106.41  E(vib)   ...       0.00
freq.    3111.57  E(vib)   ...       0.00
freq.    3130.90  E(vib)   ...       0.00
freq.    3134.32  E(vib)   ...       0.00
freq.    3145.44  E(vib)   ...       0.00
freq.    3163.56  E(vib)   ...       0.00
freq.    3171.39  E(vib)   ...       0.00
freq.    3175.55  E(vib)   ...       0.00
freq.    3176.95  E(vib)   ...       0.00

Rotational constants in cm-1:     0.010887     0.009625     0.007017

                             ****ORCA TERMINATED NORMALLY****
TOTAL RUN TIME: 0 days 0 hours 29 minutes 53 seconds 760 msec
