                         Program Version 6.1.0  -  RELEASE   -
|  1> # Automatically generated ORCA input
|  2>
|  3> # Number of cores
|  4> %pal nprocs 20 end
|  5> # RAM per core
|  6> %maxcore 4096
|  7>
|  8> ! wB97X-D3
|  9> ! 6-31G**
| 10> ! Opt
| 11> ! NoSym
| 12>
| 13> %geom
| 14>     Constraints
| 15>         {B 10 11 C}
| 16>         {B 11 20 C}
| 17>         {B 10 20 C}
| 18>         {B 10 12 C}
| 19>         {B 12 20 C}
| 20>         {B 11 12 C}
| 21>         {A 10 11 20 C}
| 22>         {A 10 12 20 C}
| 23>     end
| 24> end
| 25> %Output
| 26>   JSONPropFile True
| 27> End
| 28>
| 29>
| 30> *xyz 0 1
| 31> C        -2.05648000     -2.08167000      0.88775000
| 32> C        -0.71542000     -1.70910000      0.93465000
| 33> C        -0.28417000     -0.42133000      0.59502000
| 34> C        -1.26942000      0.52424000      0.22842000
| 35> C        -2.61511000      0.14482000      0.17402000
| 36> C        -3.00707000     -1.15097000      0.49263000
| 37> H        -2.34916000     -3.09576000      1.14203000
| 38> H         0.02192000     -2.45472000      1.21885000
| 39> H        -3.36878000      0.87022000     -0.11327000
| 40> H        -4.05730000     -1.42268000      0.44034000
| 41> B         1.26450000     -0.02546000      0.55324000
| 42> H         1.77671000     -1.14041000     -0.06933000
| 43> C         1.99846000      0.25456000      1.96532000
| 44> C         1.62154000     -0.15576000      3.22695000
| 45> C         2.29477000      0.51051000      4.28187000
| 46> H         0.87672000     -0.92962000      3.37197000
| 47> C         3.18118000      1.44486000      3.81584000
| 48> H         2.12660000      0.31592000      5.33382000
| 49> H         3.81495000      2.09868000      4.39930000
| 50> H         1.62131000      0.73753000     -0.30016000
| 51> B         2.59844000     -1.50111000      0.82102000
| 52> O         3.91459000     -1.36673000      0.48573000
| 53> O         2.30659000     -2.62546000      1.54984000
| 54> C         4.63314000     -2.30159000      1.32579000
| 55> C         3.53597000     -3.38385000      1.63830000
| 56> C         5.83075000     -2.82008000      0.54378000
| 57> H         6.53511000     -2.00357000      0.36766000
| 58> H         6.34785000     -3.60057000      1.11085000
| 59> H         5.53380000     -3.22754000     -0.42357000
| 60> C         5.10362000     -1.54319000      2.56676000
| 61> H         5.69863000     -0.68425000      2.24865000
| 62> H         4.26368000     -1.17124000      3.15863000
| 63> H         5.72436000     -2.18025000      3.20292000
| 64> C         3.62860000     -3.99703000      3.02758000
| 65> H         2.83537000     -4.73763000      3.15694000
| 66> H         4.59101000     -4.50098000      3.16019000
| 67> H         3.51802000     -3.23896000      3.80436000
| 68> C         3.44580000     -4.47859000      0.57560000
| 69> H         4.30831000     -5.14956000      0.61422000
| 70> H         2.54119000     -5.06516000      0.75236000
| 71> H         3.38027000     -4.04842000     -0.42733000
| 72> N        -1.02465000      1.92826000     -0.09427000
| 73> C        -1.31667000      2.41937000     -1.49087000
| 74> C        -0.97285000      2.94081000      1.01483000
| 75> S         3.19525000      1.51044000      2.10425000
| 76> C         0.00008000      4.08196000      0.59876000
| 77> C        -0.43110000      2.37079000      2.34036000
| 78> C        -2.36944000      3.48648000      1.42288000
| 79> C        -0.31989000      4.66000000     -0.77989000
| 80> H         1.03103000      3.66503000      0.52805000
| 81> H         0.01951000      4.89217000      1.36019000
| 82> C        -0.29370000      3.53243000     -1.82629000
| 83> H         0.44637000      5.41993000     -1.04484000
| 84> H        -1.29481000      5.18435000     -0.75772000
| 85> H         0.72897000      3.09636000     -1.83943000
| 86> H        -0.49236000      3.95795000     -2.83572000
| 87> C        -2.75396000      2.99648000     -1.75358000
| 88> C        -1.14422000      1.28077000     -2.52728000
| 89> H        -1.28143000      1.66635000     -3.56201000
| 90> H        -1.90569000      0.48481000     -2.38384000
| 91> H        -0.13507000      0.82852000     -2.45510000
| 92> H        -2.85199000      3.26882000     -2.82604000
| 93> H        -3.00075000      3.94409000     -1.27057000
| 94> H        -3.58007000      2.29266000     -1.57083000
| 95> H         0.61447000      2.14927000      2.22082000
| 96> H        -0.99874000      1.48536000      2.69614000
| 97> H        -0.43948000      3.13130000      3.15189000
| 98> H        -2.87560000      4.12301000      0.70240000
| 99> H        -2.27551000      4.16122000      2.30346000
|100> H        -3.04434000      2.65355000      1.71305000
|101> *
|102>
|103>
|104>                          ****END OF INPUT****
 Total Charge           Charge          ....    0
 Multiplicity           Mult            ....    1
 Number of Electrons    NEL             ....  238
Dispersion correction           -0.049972868
FINAL SINGLE POINT ENERGY     -1629.035234184743
Dispersion correction             ... done (  0.0 sec)
Dispersion correction           -0.049936419
FINAL SINGLE POINT ENERGY     -1629.047626076629
Dispersion correction             ... done (  0.0 sec)
Dispersion correction           -0.051046918
FINAL SINGLE POINT ENERGY     -1629.049739341131
Dispersion correction             ... done (  0.0 sec)
FINAL SINGLE POINT ENERGY     -1629.051385234927
FINAL SINGLE POINT ENERGY     -1629.053144328372
FINAL SINGLE POINT ENERGY     -1629.055088535584
FINAL SINGLE POINT ENERGY     -1629.055334933705
FINAL SINGLE POINT ENERGY     -1629.055490681378
FINAL SINGLE POINT ENERGY     -1629.055505639045
FINAL SINGLE POINT ENERGY     -1629.055539776815
Dispersion correction             ... done (  0.0 sec)
Dispersion correction           -0.050271905
FINAL SINGLE POINT ENERGY     -1629.055543673416
Dispersion correction             ... done (  0.0 sec)
Dispersion correction           -0.050272906
FINAL SINGLE POINT ENERGY     -1629.055546135613
Dispersion correction             ... done (  0.0 sec)
                    ***********************HURRAY********************

CARTESIAN COORDINATES (ANGSTROEM)
---------------------------------
  C     -2.105638   -1.947368    1.185382
  C     -0.762958   -1.592383    1.103288
  C     -0.350518   -0.306261    0.724044
  C     -1.350815    0.642785    0.415039
  C     -2.699527    0.273639    0.499378
  C     -3.081700   -1.007253    0.882763
  H     -2.384484   -2.955324    1.480526
  H     -0.012798   -2.344464    1.335828
  H     -3.461962    1.007320    0.259972
  H     -4.135726   -1.265036    0.940298
  B      1.204872    0.081910    0.663205
  H      1.689947   -0.986399   -0.055464
  C      1.981923    0.251770    2.069767
  C      1.654050   -0.235531    3.317365
  C      2.353593    0.386082    4.384497
  H      0.921041   -1.023595    3.450837
  C      3.209915    1.357662    3.938168
  H      2.222623    0.134803    5.430423
  H      3.854205    1.990992    4.533926
  H      1.579680    0.899347   -0.129388
  B      2.534507   -1.417053    0.780792
  O      3.842354   -1.265770    0.416818
  O      2.258512   -2.590956    1.436168
  C      4.581241   -2.257741    1.170106
  C      3.488403   -3.355163    1.445308
  C      5.750170   -2.724682    0.315267
  H      6.447549   -1.896750    0.165304
  H      6.288410   -3.538682    0.811443
  H      5.418040   -3.068899   -0.665393
  C      5.094941   -1.583669    2.441774
  H      5.688374   -0.710117    2.161322
  H      4.275634   -1.242246    3.080230
  H      5.728785   -2.260952    3.021299
  C      3.610545   -4.048417    2.794243
  H      2.809689   -4.784335    2.903604
  H      4.567863   -4.573145    2.874730
  H      3.528465   -3.334523    3.615553
  C      3.366880   -4.384000    0.322205
  H      4.228511   -5.057154    0.297327
  H      2.466041   -4.980290    0.486958
  H      3.275873   -3.895880   -0.652139
  N     -0.975408    1.968302    0.016090
  C     -1.057993    2.274304   -1.435256
  C     -1.143514    3.048382    1.020601
  S      3.164478    1.511744    2.236652
  C     -0.185526    4.194595    0.645962
  C     -0.721767    2.532801    2.403534
  C     -2.582197    3.595412    1.176321
  C     -0.323856    4.641747   -0.804312
  H      0.840566    3.840369    0.810990
  H     -0.352463    5.035102    1.330630
  C     -0.105554    3.448935   -1.727600
  H      0.408101    5.426524   -1.026480
  H     -1.311510    5.088457   -0.976769
  H      0.922765    3.087338   -1.598698
  H     -0.217103    3.743771   -2.778207
  C     -2.474222    2.602782   -1.963909
  C     -0.564407    1.065666   -2.246698
  H     -0.519154    1.340928   -3.305232
  H     -1.236354    0.208531   -2.150998
  H      0.434109    0.758201   -1.930854
  H     -2.443532    2.701331   -3.054462
  H     -2.879196    3.534931   -1.567531
  H     -3.176815    1.798567   -1.729811
  H      0.293958    2.135998    2.384163
  H     -1.388627    1.746746    2.768667
  H     -0.751743    3.360309    3.119457
  H     -2.950851    4.105535    0.285528
  H     -2.611519    4.317357    1.999522
  H     -3.282965    2.793705    1.424268

 Multiplicity           Mult            ....    1
 Number of Electrons    NEL             ....  238
 Basis Dimension        Dim             ....  633

ORBITAL ENERGIES
----------------

  NO   OCC          E(Eh)            E(eV)
   0   2.0000     -88.979464     -2421.2543
   1   2.0000     -19.258803      -524.0587
   2   2.0000     -19.258328      -524.0458
   3   2.0000     -14.399966      -391.8430
   4   2.0000     -10.359401      -281.8936
   5   2.0000     -10.357877      -281.8522
   6   2.0000     -10.320973      -280.8480
   7   2.0000     -10.308090      -280.4974
   8   2.0000     -10.307119      -280.4710
   9   2.0000     -10.303673      -280.3772
  10   2.0000     -10.299579      -280.2658
  11   2.0000     -10.296699      -280.1874
  12   2.0000     -10.294917      -280.1389
  13   2.0000     -10.285292      -279.8770
  14   2.0000     -10.283917      -279.8396
  15   2.0000     -10.283104      -279.8175
  16   2.0000     -10.277715      -279.6708
  17   2.0000     -10.274302      -279.5780
  18   2.0000     -10.272220      -279.5213
  19   2.0000     -10.268867      -279.4301
  20   2.0000     -10.268447      -279.4187
  21   2.0000     -10.264190      -279.3028
  22   2.0000     -10.260168      -279.1934
  23   2.0000     -10.259440      -279.1736
  24   2.0000     -10.258283      -279.1421
  25   2.0000     -10.254262      -279.0327
  26   2.0000     -10.254034      -279.0264
  27   2.0000     -10.251645      -278.9615
  28   2.0000     -10.249072      -278.8914
  29   2.0000      -8.074937      -219.7302
  30   2.0000      -6.919366      -188.2855
  31   2.0000      -6.829494      -185.8400
  32   2.0000      -6.028894      -164.0546
  33   2.0000      -6.024439      -163.9333
  34   2.0000      -6.022303      -163.8752
  35   2.0000      -1.189124       -32.3577
  36   2.0000      -1.118663       -30.4404
  37   2.0000      -1.028297       -27.9814
  38   2.0000      -0.999942       -27.2098
  39   2.0000      -0.948943       -25.8220
  40   2.0000      -0.932719       -25.3806
  41   2.0000      -0.907185       -24.6858
  42   2.0000      -0.897751       -24.4290
  43   2.0000      -0.874471       -23.7956
  44   2.0000      -0.852615       -23.2008
  45   2.0000      -0.847959       -23.0741
  46   2.0000      -0.840742       -22.8777
  47   2.0000      -0.835081       -22.7237
  48   2.0000      -0.828510       -22.5449
  49   2.0000      -0.812341       -22.1049
  50   2.0000      -0.798443       -21.7267
  51   2.0000      -0.785515       -21.3749
  52   2.0000      -0.775142       -21.0927
  53   2.0000      -0.768739       -20.9185
  54   2.0000      -0.750111       -20.4116
  55   2.0000      -0.718528       -19.5521
  56   2.0000      -0.707716       -19.2579
  57   2.0000      -0.688917       -18.7464
  58   2.0000      -0.674037       -18.3415
  59   2.0000      -0.667883       -18.1740
  60   2.0000      -0.665358       -18.1053
  61   2.0000      -0.661014       -17.9871
  62   2.0000      -0.649216       -17.6661
  63   2.0000      -0.631677       -17.1888
  64   2.0000      -0.615230       -16.7413
  65   2.0000      -0.601782       -16.3753
  66   2.0000      -0.582114       -15.8401
  67   2.0000      -0.579591       -15.7715
  68   2.0000      -0.574213       -15.6251
  69   2.0000      -0.563837       -15.3428
  70   2.0000      -0.557116       -15.1599
  71   2.0000      -0.554304       -15.0834
  72   2.0000      -0.549546       -14.9539
  73   2.0000      -0.547283       -14.8923
  74   2.0000      -0.539764       -14.6877
  75   2.0000      -0.523392       -14.2422
  76   2.0000      -0.519650       -14.1404
  77   2.0000      -0.509761       -13.8713
  78   2.0000      -0.508195       -13.8287
  79   2.0000      -0.503918       -13.7123
  80   2.0000      -0.502663       -13.6782
  81   2.0000      -0.500764       -13.6265
  82   2.0000      -0.498583       -13.5671
  83   2.0000      -0.497154       -13.5282
  84   2.0000      -0.494628       -13.4595
  85   2.0000      -0.488981       -13.3059
  86   2.0000      -0.484266       -13.1776
  87   2.0000      -0.480345       -13.0708
  88   2.0000      -0.478842       -13.0299
  89   2.0000      -0.473361       -12.8808
  90   2.0000      -0.471110       -12.8196
  91   2.0000      -0.468824       -12.7573
  92   2.0000      -0.465770       -12.6742
  93   2.0000      -0.464167       -12.6306
  94   2.0000      -0.456880       -12.4323
  95   2.0000      -0.456771       -12.4294
  96   2.0000      -0.451372       -12.2825
  97   2.0000      -0.443270       -12.0620
  98   2.0000      -0.441681       -12.0188
  99   2.0000      -0.439532       -11.9603
 100   2.0000      -0.435603       -11.8534
 101   2.0000      -0.430005       -11.7010
 102   2.0000      -0.428759       -11.6671
 103   2.0000      -0.427584       -11.6352
 104   2.0000      -0.416469       -11.3327
 105   2.0000      -0.415811       -11.3148
 106   2.0000      -0.411446       -11.1960
 107   2.0000      -0.405068       -11.0225
 108   2.0000      -0.396212       -10.7815
 109   2.0000      -0.390542       -10.6272
 110   2.0000      -0.385571       -10.4919
 111   2.0000      -0.381669       -10.3857
 112   2.0000      -0.371928       -10.1207
 113   2.0000      -0.366683        -9.9779
 114   2.0000      -0.334246        -9.0953
 115   2.0000      -0.318415        -8.6645
 116   2.0000      -0.313339        -8.5264
 117   2.0000      -0.304351        -8.2818
 118   2.0000      -0.271033        -7.3752
 119   0.0000       0.027952         0.7606
 120   0.0000       0.084410         2.2969
 121   0.0000       0.089905         2.4464
 122   0.0000       0.123052         3.3484
 123   0.0000       0.125141         3.4053

MULLIKEN ATOMIC CHARGES
-----------------------
   0 C :   -0.111029
   1 C :   -0.186327
   2 C :    0.047412
   3 C :    0.134935
   4 C :   -0.102176
   5 C :   -0.141828
   6 H :    0.110095
   7 H :    0.122287
   8 H :    0.105845
   9 H :    0.113698
  10 B :    0.090480
  11 H :    0.014514
  12 C :   -0.411774
  13 C :   -0.056248
  14 C :   -0.100637
  15 H :    0.144951
  16 C :   -0.325690
  17 H :    0.134309
  18 H :    0.164671
  19 H :   -0.032183
  20 B :    0.575818
  21 O :   -0.471000
  22 O :   -0.490101
  23 C :    0.199839
  24 C :    0.217545
  25 C :   -0.353771
  26 H :    0.137310
  27 H :    0.116822
  28 H :    0.132117
  29 C :   -0.343999
  30 H :    0.138325
  31 H :    0.128681
  32 H :    0.113994
  33 C :   -0.351537
  34 H :    0.132795
  35 H :    0.118378
  36 H :    0.134105
  37 C :   -0.352575
  38 H :    0.118780
  39 H :    0.136233
  40 H :    0.131953
  41 N :   -0.506007
  42 C :    0.152041
  43 C :    0.149437
  44 S :    0.294814
  45 C :   -0.185960
  46 C :   -0.332893
  47 C :   -0.327155
  48 C :   -0.231069
  49 H :    0.113702
  50 H :    0.096172
  51 C :   -0.186648
  52 H :    0.110953
  53 H :    0.098458
  54 H :    0.113068
  55 H :    0.096761
  56 C :   -0.327404
  57 C :   -0.338372
  58 H :    0.104378
  59 H :    0.122083
  60 H :    0.120724
  61 H :    0.104581
  62 H :    0.101329
  63 H :    0.110161
  64 H :    0.125565
  65 H :    0.119280
  66 H :    0.102734
  67 H :    0.100730
  68 H :    0.104215
  69 H :    0.109310
Sum of atomic charges:    0.0000000

LOEWDIN ATOMIC CHARGES
----------------------
   0 C :   -0.088083
   1 C :   -0.084816
   2 C :   -0.037481
   3 C :    0.039901
   4 C :   -0.095298
   5 C :   -0.084789
   6 H :    0.074867
   7 H :    0.079935
   8 H :    0.075153
   9 H :    0.075966
  10 B :   -0.242239
  11 H :    0.152196
  12 C :   -0.194457
  13 C :   -0.060338
  14 C :   -0.124877
  15 H :    0.092638
  16 C :   -0.223034
  17 H :    0.085529
  18 H :    0.096223
  19 H :    0.023087
  20 B :   -0.046921
  21 O :   -0.106241
  22 O :   -0.122535
  23 C :    0.093142
  24 C :    0.093055
  25 C :   -0.203927
  26 H :    0.085553
  27 H :    0.077136
  28 H :    0.081776
  29 C :   -0.205865
  30 H :    0.085840
  31 H :    0.084201
  32 H :    0.075601
  33 C :   -0.204386
  34 H :    0.083425
  35 H :    0.077699
  36 H :    0.083131
  37 C :   -0.206332
  38 H :    0.076903
  39 H :    0.084330
  40 H :    0.080790
  41 N :   -0.137236
  42 C :    0.037045
  43 C :    0.035817
  44 S :    0.377923
  45 C :   -0.123032
  46 C :   -0.199438
  47 C :   -0.216825
  48 C :   -0.136342
  49 H :    0.072635
  50 H :    0.066125
  51 C :   -0.122952
  52 H :    0.071320
  53 H :    0.062632
  54 H :    0.071684
  55 H :    0.066256
  56 C :   -0.216583
  57 C :   -0.200783
  58 H :    0.070478
  59 H :    0.075941
  60 H :    0.077904
  61 H :    0.070309
  62 H :    0.065044
  63 H :    0.071845
  64 H :    0.081525
  65 H :    0.075344
  66 H :    0.070333
  67 H :    0.064995
  68 H :    0.070163
  69 H :    0.071412

  Mayer bond orders larger than 0.100000
B(  0-C ,  1-C ) :   1.4359 B(  0-C ,  5-C ) :   1.4494 B(  0-C ,  6-H ) :   0.9507
B(  1-C ,  2-C ) :   1.3809 B(  1-C ,  7-H ) :   0.9235 B(  2-C ,  3-C ) :   1.4195
B(  2-C , 10-B ) :   0.9906 B(  3-C ,  4-C ) :   1.4030 B(  3-C , 41-N ) :   0.9717
B(  4-C ,  5-C ) :   1.4284 B(  4-C ,  8-H ) :   0.9399 B(  5-C ,  9-H ) :   0.9474
B( 10-B , 11-H ) :   0.3671 B( 10-B , 12-C ) :   0.7766 B( 10-B , 19-H ) :   0.9310
B( 10-B , 20-B ) :   0.3007 B( 11-H , 20-B ) :   0.5670 B( 12-C , 13-C ) :   1.5342
B( 12-C , 16-C ) :   0.1015 B( 12-C , 20-B ) :   0.1993 B( 12-C , 44-S ) :   1.1074
B( 13-C , 14-C ) :   1.3121 B( 13-C , 15-H ) :   0.9347 B( 14-C , 16-C ) :   1.5887
B( 14-C , 17-H ) :   0.9459 B( 16-C , 18-H ) :   0.9362 B( 16-C , 44-S ) :   1.1822
B( 20-B , 21-O ) :   1.1356 B( 20-B , 22-O ) :   1.0896 B( 21-O , 23-C ) :   0.8637
B( 22-O , 24-C ) :   0.8495 B( 23-C , 24-C ) :   0.9569 B( 23-C , 25-C ) :   1.0076
B( 23-C , 29-C ) :   0.9930 B( 24-C , 33-C ) :   1.0064 B( 24-C , 37-C ) :   0.9945
B( 25-C , 26-H ) :   0.9570 B( 25-C , 27-H ) :   0.9556 B( 25-C , 28-H ) :   0.9542
B( 29-C , 30-H ) :   0.9541 B( 29-C , 31-H ) :   0.9460 B( 29-C , 32-H ) :   0.9529
B( 33-C , 34-H ) :   0.9573 B( 33-C , 35-H ) :   0.9555 B( 33-C , 36-H ) :   0.9537
B( 37-C , 38-H ) :   0.9529 B( 37-C , 39-H ) :   0.9556 B( 37-C , 40-H ) :   0.9570
B( 41-N , 42-C ) :   0.9440 B( 41-N , 43-C ) :   0.9464 B( 42-C , 51-C ) :   0.9817
B( 42-C , 56-C ) :   0.9733 B( 42-C , 57-C ) :   1.0004 B( 43-C , 45-C ) :   0.9820
B( 43-C , 46-C ) :   1.0012 B( 43-C , 47-C ) :   0.9724 B( 45-C , 48-C ) :   0.9979
B( 45-C , 49-H ) :   0.9508 B( 45-C , 50-H ) :   0.9538 B( 46-C , 64-H ) :   0.9490
B( 46-C , 65-H ) :   0.9559 B( 46-C , 66-H ) :   0.9604 B( 47-C , 67-H ) :   0.9587
B( 47-C , 68-H ) :   0.9582 B( 47-C , 69-H ) :   0.9587 B( 48-C , 51-C ) :   0.9984
B( 48-C , 52-H ) :   0.9590 B( 48-C , 53-H ) :   0.9553 B( 51-C , 54-H ) :   0.9524
B( 51-C , 55-H ) :   0.9537 B( 56-C , 61-H ) :   0.9581 B( 56-C , 62-H ) :   0.9588
B( 56-C , 63-H ) :   0.9584 B( 57-C , 58-H ) :   0.9595 B( 57-C , 59-H ) :   0.9562
B( 57-C , 60-H ) :   0.9529

Dispersion correction           -0.050265810
FINAL SINGLE POINT ENERGY     -1629.055546703943

DIPOLE MOMENT
-------------

Method             : SCF
Type of density    : Electron Density
Multiplicity       :   1
Irrep              :   0
Energy             : -1629.0052808936984547 Eh
Basis              : AO
                                X                 Y                 Z
Electronic contribution:      7.100369417      -4.874403497       9.218643536
Nuclear contribution   :     -5.991909685       3.886300480      -8.411119942
                        -----------------------------------------
Total Dipole Moment    :      1.108459732      -0.988103016       0.807523594
                        -----------------------------------------
Magnitude (a.u.)       :      1.690303199
Magnitude (Debye)      :      4.296409290

Rotational constants in cm-1:             0.007839             0.003215             0.002936
Rotational constants in MHz :           235.008752            96.391145            88.023751

                             ****ORCA TERMINATED NORMALLY****
TOTAL RUN TIME: 0 days 0 hours 21 minutes 55 seconds 354 msec
