                         Program Version 6.0.1  -  RELEASE   -
|  1> # Automatically generated ORCA input
|  2>
|  3> # Number of cores
|  4> %pal nprocs 24 end
|  5> # RAM per core
|  6> %maxcore 2560
|  7>
|  8> ! wB97X-D3
|  9> ! 6-31G**
| 10> ! TightSCF
| 11> ! NoSym
| 12> ! IRC
| 13>
| 14> %geom
| 15>     Calc_Hess true
| 16>     end
| 17>
| 18>
| 19> *xyz 0 1
| 20> C        -2.27032900     -1.34720200      0.84956800
| 21> C        -1.13180100     -0.58903900      1.20272100
| 22> C         0.09791600     -1.26561900      1.25788900
| 23> C         0.21385100     -2.63157300      1.02943100
| 24> C        -0.91919500     -3.37052400      0.70950300
| 25> C        -2.14476800     -2.72361300      0.61209800
| 26> H         0.99465900     -0.69581300      1.48756000
| 27> H         1.18530700     -3.11421300      1.09056300
| 28> H        -0.85061000     -4.43811400      0.52185300
| 29> H        -3.02655600     -3.29205600      0.33778900
| 30> N        -3.54346100     -0.70445400      0.69989300
| 31> C        -4.53351500     -0.90638300      1.77776900
| 32> C        -3.95861400     -0.37961400     -0.68294500
| 33> C        -5.56141300      0.23999900      1.72614000
| 34> C        -3.81650900     -0.80300200      3.13030700
| 35> C        -5.27085600     -2.26612700      1.75055200
| 36> C        -5.01505600      0.74015900     -0.63478100
| 37> C        -4.50595100     -1.58135100     -1.48821300
| 38> C        -2.75405600      0.17250400     -1.46236200
| 39> H        -6.34989500      0.04097900      2.46143000
| 40> H        -5.05200500      1.16244200      2.03421400
| 41> C        -6.14987700      0.45466300      0.33891400
| 42> H        -3.10938700     -1.62190900      3.28432200
| 43> C         2.65554100      4.90641900      1.83999900
| 44> H         2.02223000      5.73286500      1.50736200
| 45> H         2.78664400      4.99074600      2.91990500
| 46> H         3.63232400      5.01152200      1.35765300
| 47> C         1.63811200      3.59026100     -0.02710100
| 48> H         0.91028500      4.38641800     -0.20179700
| 49> H         2.51387200      3.77650100     -0.65488800
| 50> H         1.18097800      2.64541600     -0.32961100
| 51> C         3.69773600      1.71389300      0.78917700
| 52> H         4.44892400      2.43892900      0.46026900
| 53> H         4.21886600      0.83330000      1.17327200
| 54> H         3.10212100      1.40690400     -0.07155500
| 55> C         3.63922300      2.51614000      3.16063000
| 56> H         4.00850000      1.54661200      3.50336800
| 57> H        -3.26513000      0.13625200      3.19025000
| 58> H        -4.55308300     -0.83174200      3.94040100
| 59> H        -5.86578700     -2.40768600      0.84658900
| 60> H        -4.56081300     -3.09313700      1.82484600
| 61> H        -5.94989800     -2.33849600      2.60743200
| 62> H        -5.39987900      0.90515700     -1.64780100
| 63> H        -4.51196000      1.66406600     -0.32237400
| 64> H        -4.72530500     -1.27383600     -2.51658000
| 65> H        -3.76404300     -2.38237500     -1.53507900
| 66> H        -5.42475300     -1.99162800     -1.06501800
| 67> H        -2.29965500      1.01268300     -0.93167700
| 68> H        -1.98644700     -0.58902600     -1.61977100
| 69> H        -3.09212000      0.52168100     -2.44353800
| 70> H        -6.85575800      1.29250700      0.35282800
| 71> H        -6.72219100     -0.42551400      0.02111000
| 72> B        -1.20185100      0.99015400      1.45580600
| 73> H        -2.29228800      1.49362700      1.47308800
| 74> H        -0.44221800      1.61045400      0.73443200
| 75> C         2.01184800      3.58229300      1.45511600
| 76> C         2.82358600      2.30807800      1.88376300
| 77> O         0.78804800      3.43210400      2.20952600
| 78> O         1.78256800      1.36457700      2.20620100
| 79> B         0.64171000      2.08792700      2.45726200
| 80> H         4.49647500      3.17292000      2.98874000
| 81> H         3.02297900      2.94442100      3.95596800
| 82> C        -0.59431500      1.47596600      3.19633600
| 83> C        -0.45313600      0.37578600      4.08581500
| 84> C        -1.28355300      0.55309400      5.17513700
| 85> H         0.19880400     -0.46352700      3.89187300
| 86> C        -1.93298800      1.77713800      4.97641400
| 87> H        -1.43545200     -0.11338800      6.01038400
| 88> H        -2.67766200      2.26485800      5.59138200
| 89> N        -1.52297000      2.33200900      3.83845900
| 90> C        -2.01146800      3.58731100      3.29642900
| 91> H        -1.17582900      4.26759900      3.13291300
| 92> H        -2.50488500      3.39485600      2.34126500
| 93> H        -2.72222100      4.02114300      4.00042300
| 94> *
| 95>
| 96>
| 97>                          ****END OF INPUT****

CARTESIAN COORDINATES (ANGSTROEM)
---------------------------------
  C     -2.270329   -1.347202    0.849568
  C     -1.131801   -0.589039    1.202721
  C      0.097916   -1.265619    1.257889
  C      0.213851   -2.631573    1.029431
  C     -0.919195   -3.370524    0.709503
  C     -2.144768   -2.723613    0.612098
  H      0.994659   -0.695813    1.487560
  H      1.185307   -3.114213    1.090563
  H     -0.850610   -4.438114    0.521853
  H     -3.026556   -3.292056    0.337789
  N     -3.543461   -0.704454    0.699893
  C     -4.533515   -0.906383    1.777769
  C     -3.958614   -0.379614   -0.682945
  C     -5.561413    0.239999    1.726140
  C     -3.816509   -0.803002    3.130307
  C     -5.270856   -2.266127    1.750552
  C     -5.015056    0.740159   -0.634781
  C     -4.505951   -1.581351   -1.488213
  C     -2.754056    0.172504   -1.462362
  H     -6.349895    0.040979    2.461430
  H     -5.052005    1.162442    2.034214
  C     -6.149877    0.454663    0.338914
  H     -3.109387   -1.621909    3.284322
  C      2.655541    4.906419    1.839999
  H      2.022230    5.732865    1.507362
  H      2.786644    4.990746    2.919905
  H      3.632324    5.011522    1.357653
  C      1.638112    3.590261   -0.027101
  H      0.910285    4.386418   -0.201797
  H      2.513872    3.776501   -0.654888
  H      1.180978    2.645416   -0.329611
  C      3.697736    1.713893    0.789177
  H      4.448924    2.438929    0.460269
  H      4.218866    0.833300    1.173272
  H      3.102121    1.406904   -0.071555
  C      3.639223    2.516140    3.160630
  H      4.008500    1.546612    3.503368
  H     -3.265130    0.136252    3.190250
  H     -4.553083   -0.831742    3.940401
  H     -5.865787   -2.407686    0.846589
  H     -4.560813   -3.093137    1.824846
  H     -5.949898   -2.338496    2.607432
  H     -5.399879    0.905157   -1.647801
  H     -4.511960    1.664066   -0.322374
  H     -4.725305   -1.273836   -2.516580
  H     -3.764043   -2.382375   -1.535079
  H     -5.424753   -1.991628   -1.065018
  H     -2.299655    1.012683   -0.931677
  H     -1.986447   -0.589026   -1.619771
  H     -3.092120    0.521681   -2.443538
  H     -6.855758    1.292507    0.352828
  H     -6.722191   -0.425514    0.021110
  B     -1.201851    0.990154    1.455806
  H     -2.292288    1.493627    1.473088
  H     -0.442218    1.610454    0.734432
  C      2.011848    3.582293    1.455116
  C      2.823586    2.308078    1.883763
  O      0.788048    3.432104    2.209526
  O      1.782568    1.364577    2.206201
  B      0.641710    2.087927    2.457262
  H      4.496475    3.172920    2.988740
  H      3.022979    2.944421    3.955968
  C     -0.594315    1.475966    3.196336
  C     -0.453136    0.375786    4.085815
  C     -1.283553    0.553094    5.175137
  H      0.198804   -0.463527    3.891873
  C     -1.932988    1.777138    4.976414
  H     -1.435452   -0.113388    6.010384
  H     -2.677662    2.264858    5.591382
  N     -1.522970    2.332009    3.838459
  C     -2.011468    3.587311    3.296429
  H     -1.175829    4.267599    3.132913
  H     -2.504885    3.394856    2.341265
  H     -2.722221    4.021143    4.000423

 Total Charge           Charge          ....    0
 Multiplicity           Mult            ....    1
 Number of Electrons    NEL             ....  238
 Basis Dimension        Dim             ....  658

ORBITAL ENERGIES
----------------

  NO   OCC          E(Eh)            E(eV)
   0   2.0000     -19.251530      -523.8608
   1   2.0000     -19.247932      -523.7628
   2   2.0000     -14.514086      -394.9484
   3   2.0000     -14.389171      -391.5492
   4   2.0000     -10.351804      -281.6869
   5   2.0000     -10.351416      -281.6763
   6   2.0000     -10.347048      -281.5575
   7   2.0000     -10.327208      -281.0176
   8   2.0000     -10.305289      -280.4212
   9   2.0000     -10.302976      -280.3582
  10   2.0000     -10.302555      -280.3468
  11   2.0000     -10.301029      -280.3052
  12   2.0000     -10.291074      -280.0344
  13   2.0000     -10.285346      -279.8785
  14   2.0000     -10.281819      -279.7825
  15   2.0000     -10.278487      -279.6919
  16   2.0000     -10.278366      -279.6886
  17   2.0000     -10.273271      -279.5499
  18   2.0000     -10.262155      -279.2474
  19   2.0000     -10.262037      -279.2442
  20   2.0000     -10.260299      -279.1969
  21   2.0000     -10.258700      -279.1534
  22   2.0000     -10.257204      -279.1127
  23   2.0000     -10.256477      -279.0929
  24   2.0000     -10.252509      -278.9849
  25   2.0000     -10.250022      -278.9173
  26   2.0000     -10.247938      -278.8606
  27   2.0000     -10.247105      -278.8379
  28   2.0000     -10.243418      -278.7376
  29   2.0000     -10.238888      -278.6143
  30   2.0000      -6.890067      -187.4882
  31   2.0000      -6.790816      -184.7875
  32   2.0000      -1.180982       -32.1362
  33   2.0000      -1.127132       -30.6708
  34   2.0000      -1.109383       -30.1878
  35   2.0000      -1.020963       -27.7818
  36   2.0000      -0.939412       -25.5627
  37   2.0000      -0.936397       -25.4807
  38   2.0000      -0.926998       -25.2249
  39   2.0000      -0.902757       -24.5653
  40   2.0000      -0.892784       -24.2939
  41   2.0000      -0.868882       -23.6435
  42   2.0000      -0.862773       -23.4772
  43   2.0000      -0.833960       -22.6932
  44   2.0000      -0.826810       -22.4986
  45   2.0000      -0.823701       -22.4140
  46   2.0000      -0.819195       -22.2914
  47   2.0000      -0.802025       -21.8242
  48   2.0000      -0.793957       -21.6047
  49   2.0000      -0.780782       -21.2462
  50   2.0000      -0.771054       -20.9815
  51   2.0000      -0.764833       -20.8122
  52   2.0000      -0.736626       -20.0446
  53   2.0000      -0.705647       -19.2016
  54   2.0000      -0.701036       -19.0762
  55   2.0000      -0.693239       -18.8640
  56   2.0000      -0.678507       -18.4631
  57   2.0000      -0.664928       -18.0936
  58   2.0000      -0.661089       -17.9891
  59   2.0000      -0.659578       -17.9480
  60   2.0000      -0.652370       -17.7519
  61   2.0000      -0.635519       -17.2933
  62   2.0000      -0.617025       -16.7901
  63   2.0000      -0.598880       -16.2963
  64   2.0000      -0.581887       -15.8339
  65   2.0000      -0.575059       -15.6482
  66   2.0000      -0.569798       -15.5050
  67   2.0000      -0.564729       -15.3671
  68   2.0000      -0.555721       -15.1219
  69   2.0000      -0.549716       -14.9585
  70   2.0000      -0.548132       -14.9154
  71   2.0000      -0.542259       -14.7556
  72   2.0000      -0.541673       -14.7397
  73   2.0000      -0.536206       -14.5909
  74   2.0000      -0.529389       -14.4054
  75   2.0000      -0.528321       -14.3764
  76   2.0000      -0.515220       -14.0199
  77   2.0000      -0.514615       -14.0034
  78   2.0000      -0.506902       -13.7935
  79   2.0000      -0.502968       -13.6865
  80   2.0000      -0.501930       -13.6582
  81   2.0000      -0.496895       -13.5212
  82   2.0000      -0.495941       -13.4952
  83   2.0000      -0.495177       -13.4745
  84   2.0000      -0.493693       -13.4341
  85   2.0000      -0.486276       -13.2322
  86   2.0000      -0.484716       -13.1898
  87   2.0000      -0.481702       -13.1078
  88   2.0000      -0.478586       -13.0230
  89   2.0000      -0.472693       -12.8626
  90   2.0000      -0.467226       -12.7139
  91   2.0000      -0.464799       -12.6478
  92   2.0000      -0.460707       -12.5365
  93   2.0000      -0.459898       -12.5145
  94   2.0000      -0.458474       -12.4757
  95   2.0000      -0.450286       -12.2529
  96   2.0000      -0.446061       -12.1379
  97   2.0000      -0.440803       -11.9949
  98   2.0000      -0.435728       -11.8568
  99   2.0000      -0.434434       -11.8216
 100   2.0000      -0.430850       -11.7240
 101   2.0000      -0.429061       -11.6753
 102   2.0000      -0.424192       -11.5428
 103   2.0000      -0.422405       -11.4942
 104   2.0000      -0.413579       -11.2541
 105   2.0000      -0.412103       -11.2139
 106   2.0000      -0.397828       -10.8254
 107   2.0000      -0.393322       -10.7028
 108   2.0000      -0.389514       -10.5992
 109   2.0000      -0.378164       -10.2904
 110   2.0000      -0.373775       -10.1709
 111   2.0000      -0.367651       -10.0043
 112   2.0000      -0.363015        -9.8781
 113   2.0000      -0.359093        -9.7714
 114   2.0000      -0.345174        -9.3927
 115   2.0000      -0.328574        -8.9409
 116   2.0000      -0.300707        -8.1827
 117   2.0000      -0.288553        -7.8519
 118   2.0000      -0.258723        -7.0402
 119   0.0000       0.031573         0.8591
 120   0.0000       0.099076         2.6960
 121   0.0000       0.103394         2.8135
 122   0.0000       0.138266         3.7624
 123   0.0000       0.154505         4.2043

MULLIKEN ATOMIC CHARGES
-----------------------
   0 C :    0.119174
   1 C :    0.084546
   2 C :   -0.202458
   3 C :   -0.111236
   4 C :   -0.146922
   5 C :   -0.101827
   6 H :    0.114724
   7 H :    0.102309
   8 H :    0.106450
   9 H :    0.100787
  10 N :   -0.500527
  11 C :    0.154412
  12 C :    0.154173
  13 C :   -0.183923
  14 C :   -0.321821
  15 C :   -0.326756
  16 C :   -0.186611
  17 C :   -0.326301
  18 C :   -0.338425
  19 H :    0.093385
  20 H :    0.099001
  21 C :   -0.228899
  22 H :    0.119400
  23 C :   -0.354341
  24 H :    0.130045
  25 H :    0.127989
  26 H :    0.118008
  27 C :   -0.351646
  28 H :    0.130176
  29 H :    0.114060
  30 H :    0.148856
  31 C :   -0.354414
  32 H :    0.114318
  33 H :    0.131447
  34 H :    0.140181
  35 C :   -0.352577
  36 H :    0.133943
  37 H :    0.112409
  38 H :    0.092587
  39 H :    0.100559
  40 H :    0.111345
  41 H :    0.098997
  42 H :    0.095846
  43 H :    0.106766
  44 H :    0.100795
  45 H :    0.112764
  46 H :    0.097864
  47 H :    0.129536
  48 H :    0.124353
  49 H :    0.097734
  50 H :    0.106262
  51 H :    0.099627
  52 B :    0.045503
  53 H :   -0.107540
  54 H :   -0.099733
  55 C :    0.212029
  56 C :    0.218500
  57 O :   -0.506832
  58 O :   -0.497124
  59 B :    0.664749
  60 H :    0.115644
  61 H :    0.126377
  62 C :   -0.088719
  63 C :   -0.074927
  64 C :   -0.184488
  65 H :    0.159084
  66 C :    0.087663
  67 H :    0.139928
  68 H :    0.156893
  69 N :   -0.367318
  70 C :   -0.217001
  71 H :    0.177620
  72 H :    0.174795
  73 H :    0.128755
Sum of atomic charges:   -0.0000000

LOEWDIN ATOMIC CHARGES
----------------------
   0 C :    0.031788
   1 C :   -0.033458
   2 C :   -0.085635
   3 C :   -0.093508
   4 C :   -0.092930
   5 C :   -0.098830
   6 H :    0.076517
   7 H :    0.071329
   8 H :    0.072663
   9 H :    0.072876
  10 N :   -0.134841
  11 C :    0.035738
  12 C :    0.037068
  13 C :   -0.122346
  14 C :   -0.198337
  15 C :   -0.217652
  16 C :   -0.122845
  17 C :   -0.217211
  18 C :   -0.198669
  19 H :    0.064416
  20 H :    0.066134
  21 C :   -0.136843
  22 H :    0.075437
  23 C :   -0.205296
  24 H :    0.082039
  25 H :    0.079675
  26 H :    0.077478
  27 C :   -0.206794
  28 H :    0.082638
  29 H :    0.075133
  30 H :    0.086593
  31 C :   -0.204716
  32 H :    0.075795
  33 H :    0.082849
  34 H :    0.085165
  35 C :   -0.206813
  36 H :    0.083264
  37 H :    0.077521
  38 H :    0.065224
  39 H :    0.064915
  40 H :    0.072211
  41 H :    0.067388
  42 H :    0.065788
  43 H :    0.069443
  44 H :    0.068043
  45 H :    0.073211
  46 H :    0.063565
  47 H :    0.085476
  48 H :    0.077113
  49 H :    0.067515
  50 H :    0.068975
  51 H :    0.063370
  52 B :   -0.265724
  53 H :   -0.007609
  54 H :    0.013483
  55 C :    0.090411
  56 C :    0.089972
  57 O :   -0.124374
  58 O :   -0.117249
  59 B :   -0.071130
  60 H :    0.075187
  61 H :    0.078402
  62 C :   -0.043826
  63 C :    0.011172
  64 C :   -0.140310
  65 H :    0.098819
  66 C :    0.004699
  67 H :    0.087211
  68 H :    0.087973
  69 N :    0.080730
  70 C :   -0.112184
  71 H :    0.097480
  72 H :    0.097904
  73 H :    0.081335

  Mayer bond orders larger than 0.100000
B(  0-C ,  1-C ) :   1.4126 B(  0-C ,  5-C ) :   1.3951 B(  0-C , 10-N ) :   0.9516
B(  1-C ,  2-C ) :   1.3730 B(  1-C , 52-B ) :   0.9896 B(  2-C ,  3-C ) :   1.4384
B(  2-C ,  6-H ) :   0.9270 B(  3-C ,  4-C ) :   1.4386 B(  3-C ,  7-H ) :   0.9523
B(  4-C ,  5-C ) :   1.4363 B(  4-C ,  8-H ) :   0.9485 B(  5-C ,  9-H ) :   0.9414
B( 10-N , 11-C ) :   0.9559 B( 10-N , 12-C ) :   0.9518 B( 11-C , 13-C ) :   0.9822
B( 11-C , 14-C ) :   0.9993 B( 11-C , 15-C ) :   0.9726 B( 12-C , 16-C ) :   0.9823
B( 12-C , 17-C ) :   0.9733 B( 12-C , 18-C ) :   0.9992 B( 13-C , 19-H ) :   0.9540
B( 13-C , 20-H ) :   0.9536 B( 13-C , 21-C ) :   0.9992 B( 14-C , 22-H ) :   0.9559
B( 14-C , 37-H ) :   0.9521 B( 14-C , 38-H ) :   0.9616 B( 15-C , 39-H ) :   0.9596
B( 15-C , 40-H ) :   0.9585 B( 15-C , 41-H ) :   0.9583 B( 16-C , 21-C ) :   0.9982
B( 16-C , 42-H ) :   0.9540 B( 16-C , 43-H ) :   0.9531 B( 17-C , 44-H ) :   0.9585
B( 17-C , 45-H ) :   0.9580 B( 17-C , 46-H ) :   0.9599 B( 18-C , 47-H ) :   0.9497
B( 18-C , 48-H ) :   0.9560 B( 18-C , 49-H ) :   0.9595 B( 21-C , 50-H ) :   0.9596
B( 21-C , 51-H ) :   0.9551 B( 23-C , 24-H ) :   0.9585 B( 23-C , 25-H ) :   0.9555
B( 23-C , 26-H ) :   0.9560 B( 23-C , 55-C ) :   1.0063 B( 27-C , 28-H ) :   0.9565
B( 27-C , 29-H ) :   0.9529 B( 27-C , 30-H ) :   0.9488 B( 27-C , 55-C ) :   0.9961
B( 31-C , 32-H ) :   0.9559 B( 31-C , 33-H ) :   0.9577 B( 31-C , 34-H ) :   0.9529
B( 31-C , 56-C ) :   1.0053 B( 35-C , 36-H ) :   0.9567 B( 35-C , 56-C ) :   0.9922
B( 35-C , 60-H ) :   0.9536 B( 35-C , 61-H ) :   0.9579 B( 52-B , 53-H ) :   0.9096
B( 52-B , 54-H ) :   0.8607 B( 52-B , 59-B ) :   0.1092 B( 52-B , 62-C ) :   0.4617
B( 55-C , 56-C ) :   0.9587 B( 55-C , 57-O ) :   0.8596 B( 56-C , 58-O ) :   0.8694
B( 57-O , 59-B ) :   1.0895 B( 58-O , 59-B ) :   1.0728 B( 59-B , 62-C ) :   0.8472
B( 62-C , 63-C ) :   1.2831 B( 62-C , 69-N ) :   1.0114 B( 63-C , 64-C ) :   1.5330
B( 63-C , 65-H ) :   0.9333 B( 64-C , 66-C ) :   1.3733 B( 64-C , 67-H ) :   0.9477
B( 66-C , 68-H ) :   0.9377 B( 66-C , 69-N ) :   1.3545 B( 69-N , 70-C ) :   0.9178
B( 70-C , 71-H ) :   0.9336 B( 70-C , 72-H ) :   0.9334 B( 70-C , 73-H ) :   0.9600

Dispersion correction           -0.052072663
FINAL SINGLE POINT ENERGY     -1325.541167070286
Dispersion correction             ... done (  0.0 sec)

DIPOLE MOMENT
-------------

Method             : SCF
Type of density    : Electron Density
Multiplicity       :   1
Irrep              :   0
Energy             : -1325.4890944069595662 Eh
Relativity type    :
Basis              : AO
                                X                 Y                 Z
Electronic contribution:     10.559129412      -2.698740392      13.856415812
Nuclear contribution   :     -9.893337022       4.205871340     -12.558067763
                        -----------------------------------------
Total Dipole Moment    :      0.665792390       1.507130948       1.298348049
                        -----------------------------------------
Magnitude (a.u.)       :      2.097720395
Magnitude (Debye)      :      5.331981505

--------------------------
THERMOCHEMISTRY AT 298.15K
--------------------------

Temperature         ...   298.15 K
Pressure            ...     1.00 atm
Total Mass          ...   436.25 AMU
Quasi RRHO          ...     True
Cut-Off Frequency   ...     1.00 cm^-1

Throughout the following assumptions are being made:
  (1) The electronic state is orbitally nondegenerate
  (2) There are no thermally accessible electronically excited states
  (3) Hindered rotations indicated by low frequency modes are not
      treated as such but are treated as vibrations and this may
      cause some error
  (4) All equations used are the standard statistical mechanics
      equations for an ideal gas
  (5) All vibrations are strictly harmonic

freq.      16.57  E(vib)   ...       0.57
freq.      23.35  E(vib)   ...       0.56
freq.      43.54  E(vib)   ...       0.53
freq.      54.32  E(vib)   ...       0.52
freq.      75.80  E(vib)   ...       0.49
freq.      81.23  E(vib)   ...       0.48
freq.      87.93  E(vib)   ...       0.48
freq.     101.54  E(vib)   ...       0.46
freq.     114.59  E(vib)   ...       0.44
freq.     118.91  E(vib)   ...       0.44
freq.     128.72  E(vib)   ...       0.43
freq.     133.27  E(vib)   ...       0.42
freq.     156.97  E(vib)   ...       0.40
freq.     173.27  E(vib)   ...       0.38
freq.     180.20  E(vib)   ...       0.37
freq.     201.02  E(vib)   ...       0.35
freq.     230.23  E(vib)   ...       0.32
freq.     234.56  E(vib)   ...       0.32
freq.     248.20  E(vib)   ...       0.31
freq.     251.18  E(vib)   ...       0.30
freq.     254.21  E(vib)   ...       0.30
freq.     258.95  E(vib)   ...       0.30
freq.     267.72  E(vib)   ...       0.29
freq.     283.91  E(vib)   ...       0.28
freq.     286.47  E(vib)   ...       0.27
freq.     293.01  E(vib)   ...       0.27
freq.     304.19  E(vib)   ...       0.26
freq.     306.97  E(vib)   ...       0.26
freq.     311.03  E(vib)   ...       0.26
freq.     316.11  E(vib)   ...       0.25
freq.     319.43  E(vib)   ...       0.25
freq.     324.37  E(vib)   ...       0.25
freq.     329.70  E(vib)   ...       0.24
freq.     333.66  E(vib)   ...       0.24
freq.     352.14  E(vib)   ...       0.23
freq.     358.79  E(vib)   ...       0.22
freq.     368.25  E(vib)   ...       0.21
freq.     383.82  E(vib)   ...       0.20
freq.     390.69  E(vib)   ...       0.20
freq.     398.48  E(vib)   ...       0.20
freq.     411.53  E(vib)   ...       0.19
freq.     416.96  E(vib)   ...       0.18
freq.     422.49  E(vib)   ...       0.18
freq.     440.84  E(vib)   ...       0.17
freq.     453.45  E(vib)   ...       0.16
freq.     474.50  E(vib)   ...       0.15
freq.     495.81  E(vib)   ...       0.14
freq.     514.76  E(vib)   ...       0.13
freq.     520.02  E(vib)   ...       0.13
freq.     524.30  E(vib)   ...       0.13
freq.     531.66  E(vib)   ...       0.13
freq.     559.06  E(vib)   ...       0.12
freq.     583.61  E(vib)   ...       0.11
freq.     586.15  E(vib)   ...       0.11
freq.     590.95  E(vib)   ...       0.10
freq.     596.47  E(vib)   ...       0.10
freq.     608.21  E(vib)   ...       0.10
freq.     617.80  E(vib)   ...       0.09
freq.     675.53  E(vib)   ...       0.08
freq.     677.46  E(vib)   ...       0.08
freq.     684.90  E(vib)   ...       0.07
freq.     701.52  E(vib)   ...       0.07
freq.     755.31  E(vib)   ...       0.06
freq.     777.44  E(vib)   ...       0.05
freq.     780.74  E(vib)   ...       0.05
freq.     787.53  E(vib)   ...       0.05
freq.     806.43  E(vib)   ...       0.05
freq.     816.45  E(vib)   ...       0.05
freq.     820.22  E(vib)   ...       0.05
freq.     838.34  E(vib)   ...       0.04
freq.     877.83  E(vib)   ...       0.04
freq.     880.87  E(vib)   ...       0.04
freq.     893.21  E(vib)   ...       0.03
freq.     894.17  E(vib)   ...       0.03
freq.     904.03  E(vib)   ...       0.03
freq.     907.10  E(vib)   ...       0.03
freq.     925.66  E(vib)   ...       0.03
freq.     929.46  E(vib)   ...       0.03
freq.     934.44  E(vib)   ...       0.03
freq.     942.44  E(vib)   ...       0.03
freq.     949.15  E(vib)   ...       0.03
freq.     953.56  E(vib)   ...       0.03
freq.     955.63  E(vib)   ...       0.03
freq.     963.94  E(vib)   ...       0.03
freq.     974.41  E(vib)   ...       0.03
freq.     980.07  E(vib)   ...       0.02
freq.     987.29  E(vib)   ...       0.02
freq.     994.43  E(vib)   ...       0.02
freq.     997.96  E(vib)   ...       0.02
freq.     999.50  E(vib)   ...       0.02
freq.    1016.40  E(vib)   ...       0.02
freq.    1019.96  E(vib)   ...       0.02
freq.    1024.59  E(vib)   ...       0.02
freq.    1028.35  E(vib)   ...       0.02
freq.    1029.28  E(vib)   ...       0.02
freq.    1051.46  E(vib)   ...       0.02
freq.    1066.38  E(vib)   ...       0.02
freq.    1077.02  E(vib)   ...       0.02
freq.    1088.80  E(vib)   ...       0.02
freq.    1092.54  E(vib)   ...       0.02
freq.    1098.90  E(vib)   ...       0.02
freq.    1112.96  E(vib)   ...       0.01
freq.    1117.96  E(vib)   ...       0.01
freq.    1120.90  E(vib)   ...       0.01
freq.    1141.72  E(vib)   ...       0.01
freq.    1157.42  E(vib)   ...       0.01
freq.    1159.24  E(vib)   ...       0.01
freq.    1161.32  E(vib)   ...       0.01
freq.    1185.86  E(vib)   ...       0.01
freq.    1193.03  E(vib)   ...       0.01
freq.    1195.34  E(vib)   ...       0.01
freq.    1206.11  E(vib)   ...       0.01
freq.    1208.75  E(vib)   ...       0.01
freq.    1223.22  E(vib)   ...       0.01
freq.    1238.00  E(vib)   ...       0.01
freq.    1239.83  E(vib)   ...       0.01
freq.    1246.37  E(vib)   ...       0.01
freq.    1248.90  E(vib)   ...       0.01
freq.    1267.12  E(vib)   ...       0.01
freq.    1267.97  E(vib)   ...       0.01
freq.    1270.45  E(vib)   ...       0.01
freq.    1291.03  E(vib)   ...       0.01
freq.    1300.12  E(vib)   ...       0.01
freq.    1310.24  E(vib)   ...       0.01
freq.    1311.37  E(vib)   ...       0.01
freq.    1318.36  E(vib)   ...       0.01
freq.    1325.20  E(vib)   ...       0.01
freq.    1334.83  E(vib)   ...       0.01
freq.    1347.69  E(vib)   ...       0.01
freq.    1363.41  E(vib)   ...       0.01
freq.    1381.42  E(vib)   ...       0.01
freq.    1398.31  E(vib)   ...       0.00
freq.    1400.42  E(vib)   ...       0.00
freq.    1402.77  E(vib)   ...       0.00
freq.    1409.92  E(vib)   ...       0.00
freq.    1412.17  E(vib)   ...       0.00
freq.    1417.56  E(vib)   ...       0.00
freq.    1418.61  E(vib)   ...       0.00
freq.    1424.19  E(vib)   ...       0.00
freq.    1425.37  E(vib)   ...       0.00
freq.    1429.68  E(vib)   ...       0.00
freq.    1438.85  E(vib)   ...       0.00

Rotational constants in cm-1:     0.007646     0.003153     0.002980

                      ***********************HURRAY********************
                      ***********************HURRAY********************
                             ****ORCA TERMINATED NORMALLY****
TOTAL RUN TIME: 0 days 5 hours 50 minutes 58 seconds 316 msec
