                         Program Version 6.1.0  -  RELEASE   -
|  1> # Automatically generated ORCA input
|  2>
|  3> # Number of cores
|  4> %pal nprocs 8 end
|  5> # RAM per core
|  6> %maxcore 3840
|  7>
|  8> ! wB97X-D3
|  9> ! 6-31G**
| 10> ! TightSCF
| 11> ! Freq
| 12>
| 13> %geom
| 14>   Calc_Hess true
| 15> end
| 16> %Output
| 17>   JSONPropFile True
| 18> End
| 19>
| 20>
| 21> *xyz 0 1
| 22> C        -2.23494600     -1.44824400      0.97690300
| 23> C        -1.07094800     -0.72540600      0.63015000
| 24> C        -0.02669200     -1.43320700      0.02757900
| 25> C        -0.09926900     -2.80246400     -0.22444300
| 26> C        -1.24558300     -3.49625200      0.13450300
| 27> C        -2.30962500     -2.82006800      0.72892800
| 28> H         0.88674100     -0.89680500     -0.21550800
| 29> H         0.73793100     -3.32012800     -0.68245600
| 30> H        -1.32365800     -4.56412700     -0.04787800
| 31> H        -3.20488100     -3.37229400      0.99636300
| 32> N        -3.30028800     -0.75640700      1.62935200
| 33> B        -0.87051000      0.81403000      0.96092400
| 34> H         1.94202100      3.87821500     -0.00484800
| 35> H         3.52011700      3.08684900     -0.18651500
| 36> H         2.02499000      2.13346700     -0.27388700
| 37> C         4.10277000      0.76091500      1.23660200
| 38> H         4.99242000      1.39511000      1.16824800
| 39> H         4.40962500     -0.21763000      1.61472700
| 40> H         3.69004200      0.62348700      0.23607300
| 41> C         3.60050900      1.35136000      3.61734600
| 42> H         3.75986900      0.31196600      3.91458500
| 43> H         4.54848300      1.88825400      3.71205600
| 44> H         2.87551500      1.79430800      4.30579600
| 45> C        -0.56853000      0.98463600      2.87601700
| 46> C        -0.69781700     -0.22387100      3.56453900
| 47> C        -1.63249200     -0.20703900      4.60713400
| 48> H        -1.74806900      1.61281700      0.80887900
| 49> H         0.17620500      1.24351800      0.51534300
| 50> C         2.54872100      2.78837100      1.74157800
| 51> C         3.07798200      1.37488200      2.17971000
| 52> O         1.18545100      2.76271500      2.21329000
| 53> O         1.88496100      0.56713700      2.15675800
| 54> B         0.81869500      1.43771700      2.25810700
| 55> C         3.26051100      3.96438600      2.39504500
| 56> H         2.83279800      4.90100900      2.02862200
| 57> H         3.15086300      3.94276600      3.48030500
| 58> H         4.32665800      3.95510500      2.14702400
| 59> C         2.51263800      2.97498300      0.22399200
| 60> H        -0.11680700     -1.09227400      3.27755500
| 61> C        -2.22153200      1.03210500      4.73611200
| 62> H        -1.87656000     -1.05677500      5.23114400
| 63> H        -2.98493100      1.31622500      5.44873800
| 64> S        -1.64065500      2.15773800      3.60861000
| 65> C        -4.12798900      0.04105900      0.73540100
| 66> H        -4.79099300     -0.58709400      0.11435400
| 67> H        -4.75157000      0.72097200      1.32554100
| 68> H        -3.50137000      0.63996600      0.07599900
| 69> C        -4.11474000     -1.54206800      2.53242400
| 70> H        -4.69543900     -0.86255600      3.16577800
| 71> H        -4.83179900     -2.21188300      2.02376600
| 72> H        -3.47565400     -2.14842600      3.17918200
| 73> *
| 74>
| 75>
| 76>                          ****END OF INPUT****

CARTESIAN COORDINATES (ANGSTROEM)
---------------------------------
  C     -2.234946   -1.448244    0.976903
  C     -1.070948   -0.725406    0.630150
  C     -0.026692   -1.433207    0.027579
  C     -0.099269   -2.802464   -0.224443
  C     -1.245583   -3.496252    0.134503
  C     -2.309625   -2.820068    0.728928
  H      0.886741   -0.896805   -0.215508
  H      0.737931   -3.320128   -0.682456
  H     -1.323658   -4.564127   -0.047878
  H     -3.204881   -3.372294    0.996363
  N     -3.300288   -0.756407    1.629352
  B     -0.870510    0.814030    0.960924
  H      1.942021    3.878215   -0.004848
  H      3.520117    3.086849   -0.186515
  H      2.024990    2.133467   -0.273887
  C      4.102770    0.760915    1.236602
  H      4.992420    1.395110    1.168248
  H      4.409625   -0.217630    1.614727
  H      3.690042    0.623487    0.236073
  C      3.600509    1.351360    3.617346
  H      3.759869    0.311966    3.914585
  H      4.548483    1.888254    3.712056
  H      2.875515    1.794308    4.305796
  C     -0.568530    0.984636    2.876017
  C     -0.697817   -0.223871    3.564539
  C     -1.632492   -0.207039    4.607134
  H     -1.748069    1.612817    0.808879
  H      0.176205    1.243518    0.515343
  C      2.548721    2.788371    1.741578
  C      3.077982    1.374882    2.179710
  O      1.185451    2.762715    2.213290
  O      1.884961    0.567137    2.156758
  B      0.818695    1.437717    2.258107
  C      3.260511    3.964386    2.395045
  H      2.832798    4.901009    2.028622
  H      3.150863    3.942766    3.480305
  H      4.326658    3.955105    2.147024
  C      2.512638    2.974983    0.223992
  H     -0.116807   -1.092274    3.277555
  C     -2.221532    1.032105    4.736112
  H     -1.876560   -1.056775    5.231144
  H     -2.984931    1.316225    5.448738
  S     -1.640655    2.157738    3.608610
  C     -4.127989    0.041059    0.735401
  H     -4.790993   -0.587094    0.114354
  H     -4.751570    0.720972    1.325541
  H     -3.501370    0.639966    0.075999
  C     -4.114740   -1.542068    2.532424
  H     -4.695439   -0.862556    3.165778
  H     -4.831799   -2.211883    2.023766
  H     -3.475654   -2.148426    3.179182

 Total Charge           Charge          ....    0
 Multiplicity           Mult            ....    1
 Number of Electrons    NEL             ....  184
 Basis Dimension        Dim             ....  475

ORBITAL ENERGIES
----------------

  NO   OCC          E(Eh)            E(eV)
   0   2.0000     -88.994831     -2421.6725
   1   2.0000     -19.241742      -523.5944
   2   2.0000     -19.239651      -523.5375
   3   2.0000     -14.421340      -392.4246
   4   2.0000     -10.346265      -281.5362
   5   2.0000     -10.345725      -281.5215
   6   2.0000     -10.345209      -281.5074
   7   2.0000     -10.321845      -280.8717
   8   2.0000     -10.309195      -280.5275
   9   2.0000     -10.306591      -280.4566
  10   2.0000     -10.299780      -280.2713
  11   2.0000     -10.296935      -280.1938
  12   2.0000     -10.289125      -279.9813
  13   2.0000     -10.275659      -279.6149
  14   2.0000     -10.275503      -279.6106
  15   2.0000     -10.273791      -279.5641
  16   2.0000     -10.272426      -279.5269
  17   2.0000     -10.270559      -279.4761
  18   2.0000     -10.267059      -279.3809
  19   2.0000     -10.265465      -279.3375
  20   2.0000     -10.264991      -279.3246
  21   2.0000     -10.247136      -278.8388
  22   2.0000      -8.090614      -220.1568
  23   2.0000      -6.892771      -187.5618
  24   2.0000      -6.809026      -185.2830
  25   2.0000      -6.044512      -164.4795
  26   2.0000      -6.039869      -164.3532
  27   2.0000      -6.038138      -164.3061
  28   2.0000      -1.173090       -31.9214
  29   2.0000      -1.101914       -29.9846
  30   2.0000      -1.037481       -28.2313
  31   2.0000      -1.015443       -27.6316
  32   2.0000      -0.941241       -25.6125
  33   2.0000      -0.921273       -25.0691
  34   2.0000      -0.868004       -23.6196
  35   2.0000      -0.862542       -23.4710
  36   2.0000      -0.859157       -23.3788
  37   2.0000      -0.837598       -22.7922
  38   2.0000      -0.836577       -22.7644
  39   2.0000      -0.819245       -22.2928
  40   2.0000      -0.808810       -22.0089
  41   2.0000      -0.789837       -21.4926
  42   2.0000      -0.742821       -20.2132
  43   2.0000      -0.732765       -19.9396
  44   2.0000      -0.701040       -19.0763
  45   2.0000      -0.685603       -18.6562
  46   2.0000      -0.679661       -18.4945
  47   2.0000      -0.662949       -18.0398
  48   2.0000      -0.651899       -17.7391
  49   2.0000      -0.642371       -17.4798
  50   2.0000      -0.626018       -17.0348
  51   2.0000      -0.610983       -16.6257
  52   2.0000      -0.583676       -15.8826
  53   2.0000      -0.571225       -15.5438
  54   2.0000      -0.561481       -15.2787
  55   2.0000      -0.556739       -15.1497
  56   2.0000      -0.550402       -14.9772
  57   2.0000      -0.545593       -14.8463
  58   2.0000      -0.540937       -14.7197
  59   2.0000      -0.536293       -14.5933
  60   2.0000      -0.520897       -14.1743
  61   2.0000      -0.514459       -13.9992
  62   2.0000      -0.508001       -13.8234
  63   2.0000      -0.504883       -13.7386
  64   2.0000      -0.498872       -13.5750
  65   2.0000      -0.496785       -13.5182
  66   2.0000      -0.491100       -13.3635
  67   2.0000      -0.490495       -13.3470
  68   2.0000      -0.483806       -13.1650
  69   2.0000      -0.476910       -12.9774
  70   2.0000      -0.468575       -12.7506
  71   2.0000      -0.466524       -12.6948
  72   2.0000      -0.463381       -12.6092
  73   2.0000      -0.460800       -12.5390
  74   2.0000      -0.456320       -12.4171
  75   2.0000      -0.455683       -12.3998
  76   2.0000      -0.447650       -12.1812
  77   2.0000      -0.442678       -12.0459
  78   2.0000      -0.442321       -12.0362
  79   2.0000      -0.436944       -11.8898
  80   2.0000      -0.429418       -11.6851
  81   2.0000      -0.421603       -11.4724
  82   2.0000      -0.413259       -11.2454
  83   2.0000      -0.393981       -10.7208
  84   2.0000      -0.383828       -10.4445
  85   2.0000      -0.370729       -10.0881
  86   2.0000      -0.357654        -9.7323
  87   2.0000      -0.351072        -9.5532
  88   2.0000      -0.339884        -9.2487
  89   2.0000      -0.327832        -8.9208
  90   2.0000      -0.305401        -8.3104
  91   2.0000      -0.271940        -7.3999
  92   0.0000      -0.000226        -0.0061
  93   0.0000       0.087711         2.3867
  94   0.0000       0.099292         2.7019
  95   0.0000       0.114181         3.1070
  96   0.0000       0.121827         3.3151

MULLIKEN ATOMIC CHARGES
-----------------------
   0 C :    0.149535
   1 C :    0.044903
   2 C :   -0.160819
   3 C :   -0.114689
   4 C :   -0.140280
   5 C :   -0.129891
   6 H :    0.105395
   7 H :    0.107241
   8 H :    0.110837
   9 H :    0.101059
  10 N :   -0.448062
  11 B :    0.039852
  12 H :    0.135265
  13 H :    0.113003
  14 H :    0.136238
  15 C :   -0.352286
  16 H :    0.113641
  17 H :    0.130486
  18 H :    0.131558
  19 C :   -0.352276
  20 H :    0.130608
  21 H :    0.113950
  22 H :    0.128707
  23 C :   -0.501419
  24 C :   -0.005110
  25 C :   -0.095260
  26 H :   -0.065262
  27 H :   -0.076270
  28 C :    0.210515
  29 C :    0.219767
  30 O :   -0.496063
  31 O :   -0.501495
  32 B :    0.698964
  33 C :   -0.353666
  34 H :    0.132109
  35 H :    0.129495
  36 H :    0.113587
  37 C :   -0.350929
  38 H :    0.177094
  39 C :   -0.298592
  40 H :    0.144001
  41 H :    0.177726
  42 S :    0.356710
  43 C :   -0.191389
  44 H :    0.093162
  45 H :    0.113398
  46 H :    0.142321
  47 C :   -0.191322
  48 H :    0.114402
  49 H :    0.092239
  50 H :    0.117309
Sum of atomic charges:    0.0000000

LOEWDIN ATOMIC CHARGES
----------------------
   0 C :    0.032526
   1 C :   -0.053953
   2 C :   -0.062070
   3 C :   -0.100541
   4 C :   -0.079456
   5 C :   -0.113482
   6 H :    0.075455
   7 H :    0.073885
   8 H :    0.074712
   9 H :    0.073841
  10 N :   -0.138724
  11 B :   -0.210084
  12 H :    0.084405
  13 H :    0.074514
  14 H :    0.081463
  15 C :   -0.204833
  16 H :    0.075386
  17 H :    0.082328
  18 H :    0.081133
  19 C :   -0.207347
  20 H :    0.081726
  21 H :    0.074290
  22 H :    0.079430
  23 C :   -0.200896
  24 C :    0.029326
  25 C :   -0.122460
  26 H :    0.002707
  27 H :    0.040857
  28 C :    0.089877
  29 C :    0.089956
  30 O :   -0.123495
  31 O :   -0.131245
  32 B :   -0.082404
  33 C :   -0.204755
  34 H :    0.083027
  35 H :    0.080597
  36 H :    0.075370
  37 C :   -0.206794
  38 H :    0.107003
  39 C :   -0.179134
  40 H :    0.089660
  41 H :    0.101681
  42 S :    0.440800
  43 C :   -0.118023
  44 H :    0.049424
  45 H :    0.068239
  46 H :    0.084901
  47 C :   -0.127733
  48 H :    0.069604
  49 H :    0.047457
  50 H :    0.071849

  Mayer bond orders larger than 0.100000
B(  0-C ,  1-C ) :   1.3709 B(  0-C ,  5-C ) :   1.4232 B(  0-C , 10-N ) :   0.9808
B(  1-C ,  2-C ) :   1.4253 B(  1-C , 11-B ) :   0.9955 B(  2-C ,  3-C ) :   1.4100
B(  2-C ,  6-H ) :   0.9420 B(  3-C ,  4-C ) :   1.4662 B(  3-C ,  7-H ) :   0.9511
B(  4-C ,  5-C ) :   1.4131 B(  4-C ,  8-H ) :   0.9486 B(  5-C ,  9-H ) :   0.9426
B( 10-N , 43-C ) :   0.9586 B( 10-N , 47-C ) :   0.9819 B( 11-B , 23-C ) :   0.3900
B( 11-B , 26-H ) :   0.9390 B( 11-B , 27-H ) :   0.8204 B( 11-B , 32-B ) :   0.1517
B( 12-H , 37-C ) :   0.9562 B( 13-H , 37-C ) :   0.9535 B( 14-H , 37-C ) :   0.9525
B( 15-C , 16-H ) :   0.9561 B( 15-C , 17-H ) :   0.9583 B( 15-C , 18-H ) :   0.9548
B( 15-C , 29-C ) :   1.0042 B( 19-C , 20-H ) :   0.9575 B( 19-C , 21-H ) :   0.9538
B( 19-C , 22-H ) :   0.9577 B( 19-C , 29-C ) :   0.9911 B( 23-C , 24-C ) :   1.4106
B( 23-C , 32-B ) :   0.7642 B( 23-C , 42-S ) :   1.0778 B( 24-C , 25-C ) :   1.3866
B( 24-C , 38-H ) :   0.9274 B( 25-C , 39-C ) :   1.5119 B( 25-C , 40-H ) :   0.9429
B( 27-H , 32-B ) :   0.1363 B( 28-C , 29-C ) :   0.9587 B( 28-C , 30-O ) :   0.8727
B( 28-C , 33-C ) :   1.0064 B( 28-C , 37-C ) :   0.9923 B( 29-C , 31-O ) :   0.8743
B( 30-O , 32-B ) :   1.0887 B( 31-O , 32-B ) :   1.0860 B( 33-C , 34-H ) :   0.9584
B( 33-C , 35-H ) :   0.9553 B( 33-C , 36-H ) :   0.9562 B( 39-C , 41-H ) :   0.9315
B( 39-C , 42-S ) :   1.2655 B( 43-C , 44-H ) :   0.9496 B( 43-C , 45-H ) :   0.9636
B( 43-C , 46-H ) :   0.9556 B( 47-C , 48-H ) :   0.9634 B( 47-C , 49-H ) :   0.9409
B( 47-C , 50-H ) :   0.9637

Dispersion correction           -0.031843752
FINAL SINGLE POINT ENERGY     -1355.101073955392

DIPOLE MOMENT
-------------

Method             : SCF
Type of density    : Electron Density
Multiplicity       :   1
Irrep              :   0
Energy             : -1355.0692302038057733 Eh
Basis              : AO
                                X                 Y                 Z
Electronic contribution:    -10.121309841       0.260796148       6.776197016
Nuclear contribution   :     10.350436843      -0.270751090      -5.527805854
                        -----------------------------------------
Total Dipole Moment    :      0.229127002      -0.009954942       1.248391162
                        -----------------------------------------
Magnitude (a.u.)       :      1.269282780
Magnitude (Debye)      :      3.226260432

VIBRATIONAL FREQUENCIES
-----------------------

Scaling factor for frequencies =  1.000000000  (already applied!)

     0:       0.00 cm**-1
     1:       0.00 cm**-1
     2:       0.00 cm**-1
     3:       0.00 cm**-1
     4:       0.00 cm**-1
     5:       0.00 cm**-1
     6:    -172.37 cm**-1  ***imaginary mode***
     7:     -14.72 cm**-1  ***imaginary mode***
     8:      29.48 cm**-1
     9:      46.29 cm**-1
    10:      57.49 cm**-1
    11:      62.65 cm**-1
    12:      84.22 cm**-1
    13:     102.66 cm**-1
    14:     115.86 cm**-1
    15:     129.07 cm**-1
    16:     129.83 cm**-1
    17:     140.61 cm**-1
    18:     163.44 cm**-1
    19:     209.58 cm**-1
    20:     226.92 cm**-1
    21:     237.12 cm**-1
    22:     246.42 cm**-1
    23:     259.06 cm**-1
    24:     270.90 cm**-1
    25:     282.99 cm**-1
    26:     300.90 cm**-1
    27:     303.80 cm**-1
    28:     306.09 cm**-1
    29:     311.81 cm**-1
    30:     320.52 cm**-1
    31:     337.00 cm**-1
    32:     357.10 cm**-1
    33:     372.02 cm**-1
    34:     374.21 cm**-1
    35:     389.39 cm**-1
    36:     399.74 cm**-1
    37:     427.36 cm**-1
    38:     481.17 cm**-1
    39:     485.93 cm**-1
    40:     499.53 cm**-1
    41:     510.86 cm**-1
    42:     531.84 cm**-1
    43:     539.90 cm**-1
    44:     570.06 cm**-1
    45:     580.36 cm**-1
    46:     590.46 cm**-1
    47:     600.27 cm**-1
    48:     608.08 cm**-1
    49:     654.25 cm**-1
    50:     684.36 cm**-1
    51:     736.15 cm**-1
    52:     761.10 cm**-1
    53:     763.31 cm**-1
    54:     769.63 cm**-1
    55:     786.05 cm**-1
    56:     795.14 cm**-1
    57:     804.16 cm**-1
    58:     829.21 cm**-1
    59:     880.89 cm**-1
    60:     897.34 cm**-1
    61:     900.32 cm**-1
    62:     905.65 cm**-1
    63:     911.61 cm**-1
    64:     949.06 cm**-1
    65:     951.05 cm**-1
    66:     954.68 cm**-1
    67:     971.31 cm**-1
    68:     977.50 cm**-1
    69:     987.54 cm**-1
    70:     989.47 cm**-1
    71:     998.04 cm**-1
    72:    1004.50 cm**-1
    73:    1018.61 cm**-1
    74:    1020.62 cm**-1
    75:    1038.30 cm**-1
    76:    1088.45 cm**-1
    77:    1091.05 cm**-1
    78:    1104.37 cm**-1
    79:    1115.88 cm**-1
    80:    1124.26 cm**-1
    81:    1129.29 cm**-1
    82:    1143.25 cm**-1
    83:    1162.05 cm**-1
    84:    1181.44 cm**-1
    85:    1189.41 cm**-1
    86:    1195.20 cm**-1
    87:    1199.57 cm**-1
    88:    1208.39 cm**-1
    89:    1215.46 cm**-1
    90:    1248.82 cm**-1
    91:    1257.45 cm**-1
    92:    1268.99 cm**-1
    93:    1269.98 cm**-1
    94:    1290.77 cm**-1
    95:    1314.45 cm**-1
    96:    1319.17 cm**-1
    97:    1333.44 cm**-1
    98:    1346.51 cm**-1
    99:    1356.94 cm**-1
   100:    1378.05 cm**-1
   101:    1393.84 cm**-1
   102:    1420.78 cm**-1
   103:    1423.83 cm**-1
   104:    1430.91 cm**-1
   105:    1440.40 cm**-1
   106:    1454.98 cm**-1
   107:    1480.98 cm**-1
   108:    1483.99 cm**-1
   109:    1485.79 cm**-1
   110:    1494.83 cm**-1
   111:    1495.64 cm**-1
   112:    1496.97 cm**-1
   113:    1498.84 cm**-1
   114:    1501.20 cm**-1
   115:    1510.75 cm**-1
   116:    1514.88 cm**-1
   117:    1516.43 cm**-1
   118:    1520.27 cm**-1
   119:    1522.92 cm**-1
   120:    1535.56 cm**-1
   121:    1538.00 cm**-1
   122:    1549.68 cm**-1
   123:    1565.66 cm**-1
   124:    1663.64 cm**-1
   125:    1687.21 cm**-1
   126:    2510.28 cm**-1
   127:    2641.95 cm**-1
   128:    2979.51 cm**-1
   129:    2989.80 cm**-1
   130:    3080.78 cm**-1
   131:    3083.93 cm**-1
   132:    3085.08 cm**-1
   133:    3088.88 cm**-1
   134:    3098.31 cm**-1
   135:    3110.05 cm**-1
   136:    3163.35 cm**-1
   137:    3165.47 cm**-1
   138:    3166.49 cm**-1
   139:    3171.76 cm**-1
   140:    3174.69 cm**-1
   141:    3175.96 cm**-1
   142:    3180.83 cm**-1
   143:    3190.71 cm**-1
   144:    3192.14 cm**-1
   145:    3203.28 cm**-1
   146:    3206.68 cm**-1
   147:    3215.07 cm**-1
   148:    3231.19 cm**-1
   149:    3240.23 cm**-1
   150:    3264.61 cm**-1
   151:    3276.64 cm**-1
   152:    3291.11 cm**-1

IR SPECTRUM
-----------

 Mode   freq       eps      Int      T**2         TX        TY        TZ
       cm**-1   L/(mol*cm) km/mol    a.u.
----------------------------------------------------------------------------
  8:     29.48   0.000046    0.23  0.000488  (-0.008345 -0.006849 -0.019279)
  9:     46.29   0.000241    1.22  0.001625  ( 0.018639  0.013364  0.033153)
 10:     57.49   0.000186    0.94  0.001012  ( 0.025569 -0.018323  0.004709)
 11:     62.65   0.000089    0.45  0.000445  (-0.011853 -0.016327 -0.006192)
 12:     84.22   0.000350    1.77  0.001296  ( 0.034348 -0.010507  0.002354)
 13:    102.66   0.000018    0.09  0.000054  (-0.001823  0.002197  0.006775)
 14:    115.86   0.000450    2.27  0.001212  ( 0.012846  0.013974  0.029179)
 15:    129.07   0.000509    2.57  0.001232  (-0.034324 -0.006769  0.002763)
 16:    129.83   0.000177    0.89  0.000425  (-0.007984 -0.018591 -0.003994)
 17:    140.61   0.002128   10.75  0.004723  (-0.019558 -0.020957 -0.062459)
 18:    163.44   0.001947    9.84  0.003718  (-0.003250 -0.017417 -0.058347)
 19:    209.58   0.001093    5.52  0.001627  (-0.003883 -0.021800 -0.033714)
 20:    226.92   0.000188    0.95  0.000258  (-0.013725 -0.007988 -0.002390)
 21:    237.12   0.000065    0.33  0.000085  (-0.006160 -0.005730  0.003782)
 22:    246.42   0.000545    2.75  0.000690  (-0.025654 -0.003938  0.004010)
 23:    259.06   0.000074    0.37  0.000089  ( 0.009423 -0.000012  0.000031)
 24:    270.90   0.001164    5.88  0.001341  (-0.016948 -0.013000 -0.029749)
 25:    282.99   0.000693    3.50  0.000764  ( 0.026708  0.004461  0.005538)
 26:    300.90   0.000020    0.10  0.000020  ( 0.002187  0.000292  0.003946)
 27:    303.80   0.000187    0.94  0.000192  (-0.006102  0.000076 -0.012423)
 28:    306.09   0.000355    1.79  0.000362  (-0.002329 -0.016341 -0.009463)
 29:    311.81   0.000755    3.82  0.000756  ( 0.003413  0.010168  0.025319)
 30:    320.52   0.000080    0.40  0.000078  ( 0.003279  0.005631  0.005932)
 31:    337.00   0.000380    1.92  0.000352  (-0.001925 -0.001602  0.018601)
 32:    357.10   0.000376    1.90  0.000329  (-0.010252 -0.002171 -0.014802)
 33:    372.02   0.002526   12.77  0.002119  ( 0.012662  0.027278  0.034852)
 34:    374.21   0.002856   14.43  0.002381  ( 0.021267  0.024276  0.036604)
 35:    389.39   0.001321    6.67  0.001058  (-0.005325 -0.002558 -0.031991)
 36:    399.74   0.001192    6.03  0.000931  (-0.008735 -0.005243 -0.028759)
 37:    427.36   0.001480    7.48  0.001081  ( 0.016540  0.016986  0.022772)
 38:    481.17   0.000911    4.61  0.000591  (-0.019351 -0.006587  0.013158)
 39:    485.93   0.002023   10.23  0.001299  (-0.010473 -0.021808 -0.026723)
 40:    499.53   0.003770   19.05  0.002355  ( 0.023398  0.015841  0.039455)
 41:    510.86   0.001155    5.84  0.000706  ( 0.002119  0.003189  0.026288)
 42:    531.84   0.000221    1.12  0.000129  ( 0.011003  0.000906 -0.002758)
 43:    539.90   0.001778    8.99  0.001028  (-0.020496 -0.023242 -0.008209)
 44:    570.06   0.014217   71.85  0.007783  (-0.028057 -0.012585 -0.082688)
 45:    580.36   0.002573   13.00  0.001383  ( 0.009171  0.019131  0.030549)
 46:    590.46   0.000962    4.86  0.000508  ( 0.011835 -0.013981  0.013145)
 47:    600.27   0.001060    5.36  0.000551  ( 0.012392  0.009868  0.017326)
 48:    608.08   0.043796  221.33  0.022476  ( 0.054864  0.050008  0.130251)
 49:    654.25   0.001157    5.85  0.000552  (-0.016859 -0.010587 -0.012471)
 50:    684.36   0.001294    6.54  0.000590  (-0.021255 -0.008396  0.008224)
 51:    736.15   0.000037    0.18  0.000016  (-0.000066 -0.002298 -0.003197)
 52:    761.10   0.010974   55.46  0.004500  (-0.062644 -0.013258 -0.019986)
 53:    763.31   0.001460    7.38  0.000597  ( 0.018648 -0.006533  0.014365)
 54:    769.63   0.001749    8.84  0.000709  (-0.024118 -0.011238  0.001021)
 55:    786.05   0.009793   49.49  0.003888  (-0.006129  0.011252  0.061021)
 56:    795.14   0.003737   18.89  0.001467  ( 0.029571  0.003506  0.024084)
 57:    804.16   0.001234    6.23  0.000479  (-0.016390  0.001782 -0.014383)
 58:    829.21   0.001712    8.65  0.000644  ( 0.016498  0.017686  0.007713)
 59:    880.89   0.001779    8.99  0.000630  (-0.004477  0.018423  0.016456)
 60:    897.34   0.004135   20.89  0.001438  ( 0.023950  0.013525 -0.026103)
 61:    900.32   0.003037   15.35  0.001053  ( 0.021686 -0.008788 -0.022474)
 62:    905.65   0.003461   17.49  0.001193  ( 0.012117 -0.029066 -0.014179)
 63:    911.61   0.000350    1.77  0.000120  ( 0.008727 -0.005022 -0.004281)
 64:    949.06   0.000031    0.16  0.000010  ( 0.003170  0.000151 -0.000355)
 65:    951.05   0.000018    0.09  0.000006  ( 0.002368 -0.000139 -0.000461)
 66:    954.68   0.000814    4.11  0.000266  (-0.013978  0.006215  0.005659)
 67:    971.31   0.003771   19.06  0.001211  ( 0.013808  0.008857  0.030698)
 68:    977.50   0.003143   15.88  0.001003  ( 0.000010  0.005555  0.031185)
 69:    987.54   0.004573   23.11  0.001445  ( 0.000117  0.004672  0.037725)
 70:    989.47   0.000292    1.48  0.000092  ( 0.004673 -0.001018 -0.008329)
 71:    998.04   0.006781   34.27  0.002120  (-0.045915  0.001517 -0.003107)
 72:   1004.50   0.000049    0.25  0.000015  ( 0.002570  0.002912  0.000393)
 73:   1018.61   0.002114   10.68  0.000648  ( 0.019367  0.009684  0.013373)
 74:   1020.62   0.010482   52.97  0.003205  ( 0.041326  0.020230  0.032982)
 75:   1038.30   0.018586   93.93  0.005586  ( 0.055714  0.028205  0.041067)
 76:   1088.45   0.001312    6.63  0.000376  ( 0.003757  0.018544 -0.004258)
 77:   1091.05   0.002758   13.94  0.000789  ( 0.006080  0.020888  0.017765)
 78:   1104.37   0.035795  180.89  0.010115  ( 0.080087  0.048672  0.036494)
 79:   1115.88   0.002820   14.25  0.000789  ( 0.023626 -0.010487  0.010981)
 80:   1124.26   0.000711    3.59  0.000197  ( 0.002682 -0.005759 -0.012531)
 81:   1129.29   0.001497    7.56  0.000414  (-0.011020  0.013666 -0.010267)
 82:   1143.25   0.014879   75.19  0.004061  ( 0.011807  0.039177  0.048859)
 83:   1162.05   0.001407    7.11  0.000378  (-0.013764  0.008018 -0.011143)
 84:   1181.44   0.003986   20.15  0.001053  (-0.026165 -0.011569 -0.015313)
 85:   1189.41   0.001305    6.60  0.000342  ( 0.000355 -0.010691 -0.015101)
 86:   1195.20   0.007579   38.30  0.001979  (-0.018057 -0.030321 -0.027083)
 87:   1199.57   0.003123   15.78  0.000813  (-0.028189  0.003579  0.002267)
 88:   1208.39   0.006373   32.21  0.001646  ( 0.017074 -0.002786  0.036694)
 89:   1215.46   0.057435  290.25  0.014746  ( 0.109888  0.034883 -0.038131)
 90:   1248.82   0.008414   42.52  0.002103  ( 0.006515  0.043516 -0.012904)
 91:   1257.45   0.000629    3.18  0.000156  (-0.000535 -0.010609 -0.006572)
 92:   1268.99   0.003689   18.64  0.000907  (-0.001121 -0.024013 -0.018145)
 93:   1269.98   0.003584   18.11  0.000881  ( 0.014113 -0.018741  0.018172)
 94:   1290.77   0.001677    8.48  0.000405  ( 0.018526  0.005329 -0.005819)
 95:   1314.45   0.044988  227.35  0.010681  ( 0.088884  0.041623 -0.032369)
 96:   1319.17   0.010736   54.26  0.002540  (-0.044698  0.009681  0.021169)
 97:   1333.44   0.000439    2.22  0.000103  (-0.000447 -0.009264  0.004096)
 98:   1346.51   0.063033  318.54  0.014608  (-0.107905 -0.034926  0.041772)
 99:   1356.94   0.020997  106.11  0.004829  ( 0.028653 -0.063162 -0.004275)
100:   1378.05   0.005376   27.17  0.001217  ( 0.033200 -0.010351 -0.002852)
101:   1393.84   0.029762  150.40  0.006663  (-0.055857 -0.045862  0.037947)
102:   1420.78   0.005270   26.63  0.001157  ( 0.000287 -0.000908  0.034008)
103:   1423.83   0.001214    6.14  0.000266  (-0.000067  0.002253  0.016158)
104:   1430.91   0.003903   19.72  0.000851  ( 0.010028 -0.026960  0.004877)
105:   1440.40   0.004282   21.64  0.000928  (-0.027735 -0.011489  0.005150)
106:   1454.98   0.000075    0.38  0.000016  ( 0.000743 -0.002189  0.003270)
107:   1480.98   0.003105   15.69  0.000654  (-0.022178  0.008774  0.009245)
108:   1483.99   0.013062   66.01  0.002747  (-0.033098  0.027341  0.030062)
109:   1485.79   0.000445    2.25  0.000094  (-0.001501  0.008449  0.004460)
110:   1494.83   0.000406    2.05  0.000085  (-0.003447 -0.002859  0.008039)
111:   1495.64   0.000446    2.25  0.000093  (-0.002812 -0.006298  0.006747)
112:   1496.97   0.000178    0.90  0.000037  (-0.002838 -0.005270 -0.001151)
113:   1498.84   0.005744   29.03  0.001196  ( 0.028795 -0.011671 -0.015181)
114:   1501.20   0.000901    4.55  0.000187  (-0.005483  0.010974  0.006072)
115:   1510.75   0.003920   19.81  0.000810  (-0.008026  0.024543  0.011956)
116:   1514.88   0.002436   12.31  0.000502  (-0.007527  0.002448 -0.020957)
117:   1516.43   0.000769    3.89  0.000158  (-0.007990  0.005040 -0.008305)
118:   1520.27   0.000677    3.42  0.000139  (-0.002536  0.011360  0.001884)
119:   1522.92   0.000498    2.52  0.000102  ( 0.009714  0.001247 -0.002491)
120:   1535.56   0.000085    0.43  0.000017  (-0.001365 -0.002903  0.002634)
121:   1538.00   0.001671    8.44  0.000339  (-0.017342 -0.005402  0.003019)
122:   1549.68   0.011084   56.02  0.002232  (-0.043737  0.009770  0.014956)
123:   1565.66   0.007931   40.08  0.001581  ( 0.027349  0.020751 -0.020057)
124:   1663.64   0.002876   14.53  0.000539  (-0.020994 -0.009584  0.002610)
125:   1687.21   0.005552   28.06  0.001027  (-0.020109  0.022043  0.011686)
126:   2510.28   0.048233  243.75  0.005996  ( 0.061132  0.046215 -0.011095)
127:   2641.95   0.020126  101.71  0.002377  (-0.039568  0.024929 -0.013792)
128:   2979.51   0.013694   69.21  0.001434  ( 0.027120  0.025015 -0.008545)
129:   2989.80   0.026844  135.66  0.002802  (-0.046659 -0.006638 -0.024099)
130:   3080.78   0.001328    6.71  0.000135  (-0.002294 -0.000662  0.011352)
131:   3083.93   0.003474   17.56  0.000352  ( 0.006124  0.009835  0.014741)
132:   3085.08   0.002061   10.42  0.000208  ( 0.010741 -0.007356  0.006245)
133:   3088.88   0.004974   25.14  0.000502  ( 0.018550  0.009075 -0.008719)
134:   3098.31   0.006793   34.33  0.000684  ( 0.005600 -0.011171 -0.022979)
135:   3110.05   0.006696   33.84  0.000672  (-0.010221  0.021102  0.011051)
136:   3163.35   0.004421   22.34  0.000436  ( 0.017243 -0.010362  0.005609)
137:   3165.47   0.000755    3.81  0.000074  (-0.000947 -0.008493  0.001170)
138:   3166.49   0.001742    8.80  0.000172  (-0.003464  0.012614 -0.000776)
139:   3171.76   0.002522   12.75  0.000248  (-0.014901  0.002772  0.004291)
140:   3174.69   0.004305   21.76  0.000423  (-0.015911  0.013012 -0.000856)
141:   3175.96   0.008061   40.73  0.000792  (-0.023180 -0.015443  0.004027)
142:   3180.83   0.004697   23.74  0.000461  (-0.003186  0.021212 -0.000869)
143:   3190.71   0.003073   15.53  0.000301  (-0.004537 -0.005182  0.015909)
144:   3192.14   0.003801   19.21  0.000372  ( 0.012257  0.001913  0.014754)
145:   3203.28   0.001829    9.24  0.000178  (-0.009345 -0.002989  0.009051)
146:   3206.68   0.000728    3.68  0.000071  ( 0.007411  0.003797 -0.001220)
147:   3215.07   0.002861   14.46  0.000278  ( 0.006220  0.015459  0.000114)
148:   3231.19   0.006299   31.83  0.000608  ( 0.022480  0.000153 -0.010149)
149:   3240.23   0.005157   26.06  0.000497  ( 0.001727 -0.020671 -0.008151)
150:   3264.61   0.000252    1.28  0.000024  ( 0.001851  0.002543 -0.003773)
151:   3276.64   0.000171    0.86  0.000016  (-0.001820 -0.000893  0.003487)
152:   3291.11   0.000115    0.58  0.000011  ( 0.000380  0.002748 -0.001802)

--------------------------
THERMOCHEMISTRY AT 298.15K
--------------------------

Temperature         ...   298.15 K
Pressure            ...     1.00 atm
Total Mass          ...   343.10 AMU
Quasi RRHO          ...     True
Cut-Off Frequency   ...     1.00 cm^-1

Throughout the following assumptions are being made:
  (1) The electronic state is orbitally nondegenerate
  (2) There are no thermally accessible electronically excited states
  (3) Hindered rotations indicated by low frequency modes are not
      treated as such but are treated as vibrations and this may
      cause some error
  (4) All equations used are the standard statistical mechanics
      equations for an ideal gas
  (5) All vibrations are strictly harmonic

freq.      29.48  E(vib)   ...       0.55
freq.      46.29  E(vib)   ...       0.53
freq.      57.49  E(vib)   ...       0.51
freq.      62.65  E(vib)   ...       0.51
freq.      84.22  E(vib)   ...       0.48
freq.     102.66  E(vib)   ...       0.46
freq.     115.86  E(vib)   ...       0.44
freq.     129.07  E(vib)   ...       0.43
freq.     129.83  E(vib)   ...       0.43
freq.     140.61  E(vib)   ...       0.41
freq.     163.44  E(vib)   ...       0.39
freq.     209.58  E(vib)   ...       0.34
freq.     226.92  E(vib)   ...       0.33
freq.     237.12  E(vib)   ...       0.32
freq.     246.42  E(vib)   ...       0.31
freq.     259.06  E(vib)   ...       0.30
freq.     270.90  E(vib)   ...       0.29
freq.     282.99  E(vib)   ...       0.28
freq.     300.90  E(vib)   ...       0.26
freq.     303.80  E(vib)   ...       0.26
freq.     306.09  E(vib)   ...       0.26
freq.     311.81  E(vib)   ...       0.25
freq.     320.52  E(vib)   ...       0.25
freq.     337.00  E(vib)   ...       0.24
freq.     357.10  E(vib)   ...       0.22
freq.     372.02  E(vib)   ...       0.21
freq.     374.21  E(vib)   ...       0.21
freq.     389.39  E(vib)   ...       0.20
freq.     399.74  E(vib)   ...       0.19
freq.     427.36  E(vib)   ...       0.18
freq.     481.17  E(vib)   ...       0.15
freq.     485.93  E(vib)   ...       0.15
freq.     499.53  E(vib)   ...       0.14
freq.     510.86  E(vib)   ...       0.14
freq.     531.84  E(vib)   ...       0.13
freq.     539.90  E(vib)   ...       0.12
freq.     570.06  E(vib)   ...       0.11
freq.     580.36  E(vib)   ...       0.11
freq.     590.46  E(vib)   ...       0.10
freq.     600.27  E(vib)   ...       0.10
freq.     608.08  E(vib)   ...       0.10
freq.     654.25  E(vib)   ...       0.08
freq.     684.36  E(vib)   ...       0.07
freq.     736.15  E(vib)   ...       0.06
freq.     761.10  E(vib)   ...       0.06
freq.     763.31  E(vib)   ...       0.06
freq.     769.63  E(vib)   ...       0.05
freq.     786.05  E(vib)   ...       0.05
freq.     795.14  E(vib)   ...       0.05
freq.     804.16  E(vib)   ...       0.05
freq.     829.21  E(vib)   ...       0.04
freq.     880.89  E(vib)   ...       0.04
freq.     897.34  E(vib)   ...       0.03
freq.     900.32  E(vib)   ...       0.03
freq.     905.65  E(vib)   ...       0.03
freq.     911.61  E(vib)   ...       0.03
freq.     949.06  E(vib)   ...       0.03
freq.     951.05  E(vib)   ...       0.03
freq.     954.68  E(vib)   ...       0.03
freq.     971.31  E(vib)   ...       0.03
freq.     977.50  E(vib)   ...       0.03
freq.     987.54  E(vib)   ...       0.02
freq.     989.47  E(vib)   ...       0.02
freq.     998.04  E(vib)   ...       0.02
freq.    1004.50  E(vib)   ...       0.02
freq.    1018.61  E(vib)   ...       0.02
freq.    1020.62  E(vib)   ...       0.02
freq.    1038.30  E(vib)   ...       0.02
freq.    1088.45  E(vib)   ...       0.02
freq.    1091.05  E(vib)   ...       0.02
freq.    1104.37  E(vib)   ...       0.02
freq.    1115.88  E(vib)   ...       0.01
freq.    1124.26  E(vib)   ...       0.01
freq.    1129.29  E(vib)   ...       0.01
freq.    1143.25  E(vib)   ...       0.01
freq.    1162.05  E(vib)   ...       0.01
freq.    1181.44  E(vib)   ...       0.01
freq.    1189.41  E(vib)   ...       0.01
freq.    1195.20  E(vib)   ...       0.01
freq.    1199.57  E(vib)   ...       0.01
freq.    1208.39  E(vib)   ...       0.01
freq.    1215.46  E(vib)   ...       0.01
freq.    1248.82  E(vib)   ...       0.01
freq.    1257.45  E(vib)   ...       0.01
freq.    1268.99  E(vib)   ...       0.01
freq.    1269.98  E(vib)   ...       0.01
freq.    1290.77  E(vib)   ...       0.01
freq.    1314.45  E(vib)   ...       0.01
freq.    1319.17  E(vib)   ...       0.01
freq.    1333.44  E(vib)   ...       0.01
freq.    1346.51  E(vib)   ...       0.01
freq.    1356.94  E(vib)   ...       0.01
freq.    1378.05  E(vib)   ...       0.01
freq.    1393.84  E(vib)   ...       0.00
freq.    1420.78  E(vib)   ...       0.00
freq.    1423.83  E(vib)   ...       0.00
freq.    1430.91  E(vib)   ...       0.00
freq.    1440.40  E(vib)   ...       0.00
freq.    1454.98  E(vib)   ...       0.00
freq.    1480.98  E(vib)   ...       0.00
freq.    1483.99  E(vib)   ...       0.00
freq.    1485.79  E(vib)   ...       0.00
freq.    1494.83  E(vib)   ...       0.00
freq.    1495.64  E(vib)   ...       0.00
freq.    1496.97  E(vib)   ...       0.00
freq.    1498.84  E(vib)   ...       0.00
freq.    1501.20  E(vib)   ...       0.00
freq.    1510.75  E(vib)   ...       0.00
freq.    1514.88  E(vib)   ...       0.00
freq.    1516.43  E(vib)   ...       0.00
freq.    1520.27  E(vib)   ...       0.00
freq.    1522.92  E(vib)   ...       0.00
freq.    1535.56  E(vib)   ...       0.00
freq.    1538.00  E(vib)   ...       0.00
freq.    1549.68  E(vib)   ...       0.00
freq.    1565.66  E(vib)   ...       0.00
freq.    1663.64  E(vib)   ...       0.00
freq.    1687.21  E(vib)   ...       0.00
freq.    2510.28  E(vib)   ...       0.00
freq.    2641.95  E(vib)   ...       0.00
freq.    2979.51  E(vib)   ...       0.00
freq.    2989.80  E(vib)   ...       0.00
freq.    3080.78  E(vib)   ...       0.00
freq.    3083.93  E(vib)   ...       0.00
freq.    3085.08  E(vib)   ...       0.00
freq.    3088.88  E(vib)   ...       0.00
freq.    3098.31  E(vib)   ...       0.00
freq.    3110.05  E(vib)   ...       0.00
freq.    3163.35  E(vib)   ...       0.00
freq.    3165.47  E(vib)   ...       0.00
freq.    3166.49  E(vib)   ...       0.00
freq.    3171.76  E(vib)   ...       0.00
freq.    3174.69  E(vib)   ...       0.00
freq.    3175.96  E(vib)   ...       0.00
freq.    3180.83  E(vib)   ...       0.00
freq.    3190.71  E(vib)   ...       0.00
freq.    3192.14  E(vib)   ...       0.00
freq.    3203.28  E(vib)   ...       0.00
freq.    3206.68  E(vib)   ...       0.00
freq.    3215.07  E(vib)   ...       0.00
freq.    3231.19  E(vib)   ...       0.00
freq.    3240.23  E(vib)   ...       0.00

Rotational constants in cm-1:     0.011818     0.005670     0.004589

                             ****ORCA TERMINATED NORMALLY****
TOTAL RUN TIME: 0 days 1 hours 1 minutes 34 seconds 519 msec
