                         Program Version 6.0.1  -  RELEASE   -
|  1> # Automatically generated ORCA input
|  2>
|  3> # Number of cores
|  4> %pal nprocs 24 end
|  5> # RAM per core
|  6> %maxcore 2560
|  7>
|  8> ! wB97X-D3
|  9> ! 6-31G**
| 10> ! TightSCF
| 11> ! NoSym
| 12> ! IRC
| 13>
| 14> %geom
| 15>     Calc_Hess true
| 16>     end
| 17>
| 18>
| 19> *xyz 0 1
| 20> C        -1.31829200     -2.05511900      0.53709000
| 21> C        -0.02369800     -1.67331700      0.94703300
| 22> C         1.00045200     -2.61267400      0.72775200
| 23> C         0.77876100     -3.85976200      0.15624200
| 24> C        -0.51268900     -4.21532400     -0.22702400
| 25> C        -1.55148500     -3.31252600     -0.03490400
| 26> H         2.01150800     -2.34200900      1.02452300
| 27> H         1.60395500     -4.55179600      0.01118500
| 28> H        -0.71379300     -5.18508300     -0.67270500
| 29> H        -2.55110600     -3.60258800     -0.32850000
| 30> H        -1.55862400      0.10360000      1.04789500
| 31> B         0.37331800     -0.29150300      1.70001600
| 32> N        -2.41614400     -1.10144500      0.73040300
| 33> C        -3.26756400     -1.38369200      1.97017700
| 34> C        -3.16901500     -0.68894800     -0.52807500
| 35> C        -4.21079800     -0.18875400      2.20823800
| 36> C        -2.35082400     -1.51207900      3.19200900
| 37> C        -4.09871800     -2.68215900      1.91922400
| 38> C        -4.03325900      0.52795200     -0.15124800
| 39> C        -4.04674600     -1.76940700     -1.20028100
| 40> C        -2.17452200     -0.23402000     -1.60037900
| 41> H        -4.87955900     -0.45569400      3.03386600
| 42> H        -3.61953200      0.66906800      2.54411700
| 43> C        -5.00624000      0.23142700      0.97954700
| 44> H        -1.71164500     -2.39697200      3.13542200
| 45> H        -1.70597300     -0.64583500      3.32391000
| 46> H        -2.97677200     -1.60523200      4.08497900
| 47> H        -3.50279000     -3.54266500      1.61022700
| 48> H        -4.45714200     -2.88907100      2.93236800
| 49> H        -4.98254600     -2.61520200      1.28474400
| 50> H        -4.56079900      0.86417200     -1.05039400
| 51> H        -3.36864000      1.34687000      0.15485500
| 52> H        -4.72983900     -1.26544700     -1.89217400
| 53> H        -3.44322700     -2.45550000     -1.79827100
| 54> H        -4.65398600     -2.35647700     -0.51693600
| 55> H        -1.69970300      0.70471500     -1.32472400
| 56> H        -1.40777500     -0.98694800     -1.79933300
| 57> H        -2.72088500     -0.06310100     -2.53312500
| 58> H        -5.59903200      1.12265400      1.21111600
| 59> H        -5.71663800     -0.54888600      0.68072200
| 60> H         1.50020800      0.05460900      1.37867300
| 61> C        -0.65942900      0.98644000      1.32824300
| 62> C        -1.27429900      1.89121200      2.23032500
| 63> C        -1.32327400      3.16565200      1.67256500
| 64> H        -1.67435300      1.60151200      3.19305000
| 65> H        -1.75398200      4.06175000      2.09667200
| 66> H         0.33403900     -0.44757600      2.90717100
| 67> C        -0.69516600      3.06707200      0.43004200
| 68> H        -0.49063400      3.83671400     -0.30335100
| 69> N        -0.31043800      1.80120400      0.22301900
| 70> C         0.60422200      1.40296400     -0.83453200
| 71> H         0.35955900      1.94043500     -1.75360800
| 72> H         1.63319900      1.62581000     -0.53966000
| 73> H         0.52414300      0.33126600     -1.00689600
| 74> *
| 75>
| 76>
| 77>                          ****END OF INPUT****

CARTESIAN COORDINATES (ANGSTROEM)
---------------------------------
  C     -1.318292   -2.055119    0.537090
  C     -0.023698   -1.673317    0.947033
  C      1.000452   -2.612674    0.727752
  C      0.778761   -3.859762    0.156242
  C     -0.512689   -4.215324   -0.227024
  C     -1.551485   -3.312526   -0.034904
  H      2.011508   -2.342009    1.024523
  H      1.603955   -4.551796    0.011185
  H     -0.713793   -5.185083   -0.672705
  H     -2.551106   -3.602588   -0.328500
  H     -1.558624    0.103600    1.047895
  B      0.373318   -0.291503    1.700016
  N     -2.416144   -1.101445    0.730403
  C     -3.267564   -1.383692    1.970177
  C     -3.169015   -0.688948   -0.528075
  C     -4.210798   -0.188754    2.208238
  C     -2.350824   -1.512079    3.192009
  C     -4.098718   -2.682159    1.919224
  C     -4.033259    0.527952   -0.151248
  C     -4.046746   -1.769407   -1.200281
  C     -2.174522   -0.234020   -1.600379
  H     -4.879559   -0.455694    3.033866
  H     -3.619532    0.669068    2.544117
  C     -5.006240    0.231427    0.979547
  H     -1.711645   -2.396972    3.135422
  H     -1.705973   -0.645835    3.323910
  H     -2.976772   -1.605232    4.084979
  H     -3.502790   -3.542665    1.610227
  H     -4.457142   -2.889071    2.932368
  H     -4.982546   -2.615202    1.284744
  H     -4.560799    0.864172   -1.050394
  H     -3.368640    1.346870    0.154855
  H     -4.729839   -1.265447   -1.892174
  H     -3.443227   -2.455500   -1.798271
  H     -4.653986   -2.356477   -0.516936
  H     -1.699703    0.704715   -1.324724
  H     -1.407775   -0.986948   -1.799333
  H     -2.720885   -0.063101   -2.533125
  H     -5.599032    1.122654    1.211116
  H     -5.716638   -0.548886    0.680722
  H      1.500208    0.054609    1.378673
  C     -0.659429    0.986440    1.328243
  C     -1.274299    1.891212    2.230325
  C     -1.323274    3.165652    1.672565
  H     -1.674353    1.601512    3.193050
  H     -1.753982    4.061750    2.096672
  H      0.334039   -0.447576    2.907171
  C     -0.695166    3.067072    0.430042
  H     -0.490634    3.836714   -0.303351
  N     -0.310438    1.801204    0.223019
  C      0.604222    1.402964   -0.834532
  H      0.359559    1.940435   -1.753608
  H      1.633199    1.625810   -0.539660
  H      0.524143    0.331266   -1.006896

 Total Charge           Charge          ....    0
 Multiplicity           Mult            ....    1
 Number of Electrons    NEL             ....  170
 Basis Dimension        Dim             ....  477

ORBITAL ENERGIES
----------------

  NO   OCC          E(Eh)            E(eV)
   0   2.0000     -14.496063      -394.4579
   1   2.0000     -14.466148      -393.6439
   2   2.0000     -10.338037      -281.3123
   3   2.0000     -10.334624      -281.2194
   4   2.0000     -10.330832      -281.1162
   5   2.0000     -10.322655      -280.8937
   6   2.0000     -10.302931      -280.3570
   7   2.0000     -10.291403      -280.0433
   8   2.0000     -10.285085      -279.8714
   9   2.0000     -10.284025      -279.8425
  10   2.0000     -10.282648      -279.8051
  11   2.0000     -10.282570      -279.8030
  12   2.0000     -10.282103      -279.7902
  13   2.0000     -10.278680      -279.6971
  14   2.0000     -10.274823      -279.5922
  15   2.0000     -10.274617      -279.5865
  16   2.0000     -10.273505      -279.5563
  17   2.0000     -10.270834      -279.4836
  18   2.0000     -10.268622      -279.4234
  19   2.0000     -10.262206      -279.2488
  20   2.0000     -10.259213      -279.1674
  21   2.0000     -10.246000      -278.8078
  22   2.0000      -6.749967      -183.6759
  23   2.0000      -1.110171       -30.2093
  24   2.0000      -1.057221       -28.7685
  25   2.0000      -0.951529       -25.8924
  26   2.0000      -0.932899       -25.3855
  27   2.0000      -0.925370       -25.1806
  28   2.0000      -0.918146       -24.9840
  29   2.0000      -0.863747       -23.5038
  30   2.0000      -0.848426       -23.0868
  31   2.0000      -0.834235       -22.7007
  32   2.0000      -0.822261       -22.3749
  33   2.0000      -0.810502       -22.0549
  34   2.0000      -0.805950       -21.9310
  35   2.0000      -0.796024       -21.6609
  36   2.0000      -0.790930       -21.5223
  37   2.0000      -0.727393       -19.7934
  38   2.0000      -0.700604       -19.0644
  39   2.0000      -0.687365       -18.7041
  40   2.0000      -0.686292       -18.6750
  41   2.0000      -0.681669       -18.5492
  42   2.0000      -0.665453       -18.1079
  43   2.0000      -0.642141       -17.4735
  44   2.0000      -0.628138       -17.0925
  45   2.0000      -0.609333       -16.5808
  46   2.0000      -0.585372       -15.9288
  47   2.0000      -0.579351       -15.7649
  48   2.0000      -0.575962       -15.6727
  49   2.0000      -0.566905       -15.4263
  50   2.0000      -0.561683       -15.2842
  51   2.0000      -0.543239       -14.7823
  52   2.0000      -0.540176       -14.6989
  53   2.0000      -0.532303       -14.4847
  54   2.0000      -0.525470       -14.2988
  55   2.0000      -0.520463       -14.1625
  56   2.0000      -0.517377       -14.0785
  57   2.0000      -0.516992       -14.0681
  58   2.0000      -0.509600       -13.8669
  59   2.0000      -0.499516       -13.5925
  60   2.0000      -0.493331       -13.4242
  61   2.0000      -0.490756       -13.3541
  62   2.0000      -0.490277       -13.3411
  63   2.0000      -0.478388       -13.0176
  64   2.0000      -0.472175       -12.8485
  65   2.0000      -0.470642       -12.8068
  66   2.0000      -0.460760       -12.5379
  67   2.0000      -0.459664       -12.5081
  68   2.0000      -0.454158       -12.3583
  69   2.0000      -0.448998       -12.2179
  70   2.0000      -0.446398       -12.1471
  71   2.0000      -0.440754       -11.9935
  72   2.0000      -0.437381       -11.9017
  73   2.0000      -0.421275       -11.4635
  74   2.0000      -0.417685       -11.3658
  75   2.0000      -0.414258       -11.2725
  76   2.0000      -0.402644       -10.9565
  77   2.0000      -0.386222       -10.5096
  78   2.0000      -0.363453        -9.8901
  79   2.0000      -0.360085        -9.7984
  80   2.0000      -0.349253        -9.5037
  81   2.0000      -0.332964        -9.0604
  82   2.0000      -0.313314        -8.5257
  83   2.0000      -0.290237        -7.8978
  84   2.0000      -0.284956        -7.7540
  85   0.0000       0.047395         1.2897
  86   0.0000       0.089461         2.4344
  87   0.0000       0.095897         2.6095
  88   0.0000       0.141890         3.8610
  89   0.0000       0.157789         4.2937

MULLIKEN ATOMIC CHARGES
-----------------------
   0 C :    0.135738
   1 C :    0.036184
   2 C :   -0.180268
   3 C :   -0.102079
   4 C :   -0.154456
   5 C :   -0.103690
   6 H :    0.109904
   7 H :    0.109883
   8 H :    0.109807
   9 H :    0.099343
  10 H :    0.264684
  11 B :    0.074882
  12 N :   -0.586950
  13 C :    0.146938
  14 C :    0.156464
  15 C :   -0.196308
  16 C :   -0.332948
  17 C :   -0.342628
  18 C :   -0.198096
  19 C :   -0.346417
  20 C :   -0.344517
  21 H :    0.113034
  22 H :    0.106713
  23 C :   -0.226912
  24 H :    0.144157
  25 H :    0.129222
  26 H :    0.106867
  27 H :    0.132527
  28 H :    0.119487
  29 H :    0.109106
  30 H :    0.109197
  31 H :    0.117552
  32 H :    0.116829
  33 H :    0.129826
  34 H :    0.113392
  35 H :    0.113999
  36 H :    0.139929
  37 H :    0.117126
  38 H :    0.121281
  39 H :    0.106902
  40 H :   -0.148950
  41 C :   -0.074401
  42 C :   -0.100624
  43 C :   -0.190497
  44 H :    0.134514
  45 H :    0.127920
  46 H :   -0.114839
  47 C :    0.075537
  48 H :    0.145038
  49 N :   -0.375200
  50 C :   -0.219383
  51 H :    0.130006
  52 H :    0.167578
  53 H :    0.167599
Sum of atomic charges:   -0.0000000

LOEWDIN ATOMIC CHARGES
----------------------
   0 C :   -0.004386
   1 C :   -0.024334
   2 C :   -0.069532
   3 C :   -0.083127
   4 C :   -0.098733
   5 C :   -0.102317
   6 H :    0.078667
   7 H :    0.074896
   8 H :    0.074207
   9 H :    0.073832
  10 H :    0.214783
  11 B :   -0.405458
  12 N :   -0.081545
  13 C :    0.039977
  14 C :    0.037167
  15 C :   -0.126395
  16 C :   -0.198136
  17 C :   -0.211930
  18 C :   -0.125365
  19 C :   -0.214676
  20 C :   -0.204534
  21 H :    0.074681
  22 H :    0.072389
  23 C :   -0.134143
  24 H :    0.087748
  25 H :    0.083361
  26 H :    0.072980
  27 H :    0.082506
  28 H :    0.078873
  29 H :    0.066057
  30 H :    0.071770
  31 H :    0.075500
  32 H :    0.077114
  33 H :    0.078802
  34 H :    0.072027
  35 H :    0.074791
  36 H :    0.083589
  37 H :    0.077602
  38 H :    0.076241
  39 H :    0.065853
  40 H :   -0.024581
  41 C :   -0.079121
  42 C :   -0.044341
  43 C :   -0.149861
  44 H :    0.082299
  45 H :    0.081631
  46 H :   -0.011939
  47 C :   -0.020243
  48 H :    0.082935
  49 N :    0.046312
  50 C :   -0.113081
  51 H :    0.077679
  52 H :    0.092079
  53 H :    0.099429

  Mayer bond orders larger than 0.100000
B(  0-C ,  1-C ) :   1.4162 B(  0-C ,  5-C ) :   1.3855 B(  0-C , 12-N ) :   0.8326
B(  1-C ,  2-C ) :   1.3966 B(  1-C , 11-B ) :   0.9379 B(  2-C ,  3-C ) :   1.4491
B(  2-C ,  6-H ) :   0.9433 B(  3-C ,  4-C ) :   1.4291 B(  3-C ,  7-H ) :   0.9504
B(  4-C ,  5-C ) :   1.4548 B(  4-C ,  8-H ) :   0.9481 B(  5-C ,  9-H ) :   0.9395
B( 10-H , 12-N ) :   0.2728 B( 10-H , 41-C ) :   0.5620 B( 11-B , 40-H ) :   0.9126
B( 11-B , 41-C ) :   0.6964 B( 11-B , 46-H ) :   0.9161 B( 12-N , 13-C ) :   0.8667
B( 12-N , 14-C ) :   0.8758 B( 13-C , 15-C ) :   0.9820 B( 13-C , 16-C ) :   1.0034
B( 13-C , 17-C ) :   0.9873 B( 14-C , 18-C ) :   0.9861 B( 14-C , 19-C ) :   0.9813
B( 14-C , 20-C ) :   1.0009 B( 15-C , 21-H ) :   0.9528 B( 15-C , 22-H ) :   0.9450
B( 15-C , 23-C ) :   0.9947 B( 16-C , 24-H ) :   0.9522 B( 16-C , 25-H ) :   0.9423
B( 16-C , 26-H ) :   0.9554 B( 17-C , 27-H ) :   0.9493 B( 17-C , 28-H ) :   0.9553
B( 17-C , 29-H ) :   0.9542 B( 18-C , 23-C ) :   0.9959 B( 18-C , 30-H ) :   0.9531
B( 18-C , 31-H ) :   0.9446 B( 19-C , 32-H ) :   0.9547 B( 19-C , 33-H ) :   0.9571
B( 19-C , 34-H ) :   0.9519 B( 20-C , 35-H ) :   0.9510 B( 20-C , 36-H ) :   0.9473
B( 20-C , 37-H ) :   0.9589 B( 23-C , 38-H ) :   0.9576 B( 23-C , 39-H ) :   0.9552
B( 41-C , 42-C ) :   1.3017 B( 41-C , 49-N ) :   1.0158 B( 42-C , 43-C ) :   1.4785
B( 42-C , 44-H ) :   0.9406 B( 43-C , 45-H ) :   0.9502 B( 43-C , 47-C ) :   1.4219
B( 47-C , 48-H ) :   0.9420 B( 47-C , 49-N ) :   1.3043 B( 49-N , 50-C ) :   0.9116
B( 50-C , 51-H ) :   0.9584 B( 50-C , 52-H ) :   0.9473 B( 50-C , 53-H ) :   0.9453

Dispersion correction           -0.038240046
FINAL SINGLE POINT ENERGY      -914.911507594168
Dispersion correction             ... done (  0.1 sec)

DIPOLE MOMENT
-------------

Method             : SCF
Type of density    : Electron Density
Multiplicity       :   1
Irrep              :   0
Energy             :  -914.8732675478792089 Eh
Relativity type    :
Basis              : AO
                                X                 Y                 Z
Electronic contribution:     10.978530553       1.540270603       1.062046509
Nuclear contribution   :    -12.503271733      -0.684629529      -2.193031845
                        -----------------------------------------
Total Dipole Moment    :     -1.524741180       0.855641074      -1.130985336
                        -----------------------------------------
Magnitude (a.u.)       :      2.082326858
Magnitude (Debye)      :      5.292854243

--------------------------
THERMOCHEMISTRY AT 298.15K
--------------------------

Temperature         ...   298.15 K
Pressure            ...     1.00 atm
Total Mass          ...   310.29 AMU
Quasi RRHO          ...     True
Cut-Off Frequency   ...     1.00 cm^-1

Throughout the following assumptions are being made:
  (1) The electronic state is orbitally nondegenerate
  (2) There are no thermally accessible electronically excited states
  (3) Hindered rotations indicated by low frequency modes are not
      treated as such but are treated as vibrations and this may
      cause some error
  (4) All equations used are the standard statistical mechanics
      equations for an ideal gas
  (5) All vibrations are strictly harmonic

freq.      43.11  E(vib)   ...       0.53
freq.      72.66  E(vib)   ...       0.49
freq.      82.75  E(vib)   ...       0.48
freq.     101.10  E(vib)   ...       0.46
freq.     120.30  E(vib)   ...       0.44
freq.     128.80  E(vib)   ...       0.43
freq.     143.46  E(vib)   ...       0.41
freq.     169.14  E(vib)   ...       0.38
freq.     189.00  E(vib)   ...       0.36
freq.     201.72  E(vib)   ...       0.35
freq.     210.48  E(vib)   ...       0.34
freq.     217.38  E(vib)   ...       0.34
freq.     241.20  E(vib)   ...       0.31
freq.     256.47  E(vib)   ...       0.30
freq.     261.35  E(vib)   ...       0.30
freq.     279.57  E(vib)   ...       0.28
freq.     291.43  E(vib)   ...       0.27
freq.     298.86  E(vib)   ...       0.26
freq.     312.65  E(vib)   ...       0.25
freq.     318.74  E(vib)   ...       0.25
freq.     329.06  E(vib)   ...       0.24
freq.     334.73  E(vib)   ...       0.24
freq.     353.21  E(vib)   ...       0.22
freq.     365.77  E(vib)   ...       0.22
freq.     383.41  E(vib)   ...       0.20
freq.     405.01  E(vib)   ...       0.19
freq.     410.68  E(vib)   ...       0.19
freq.     416.86  E(vib)   ...       0.18
freq.     448.46  E(vib)   ...       0.17
freq.     472.42  E(vib)   ...       0.15
freq.     496.48  E(vib)   ...       0.14
freq.     504.51  E(vib)   ...       0.14
freq.     536.45  E(vib)   ...       0.12
freq.     567.46  E(vib)   ...       0.11
freq.     579.83  E(vib)   ...       0.11
freq.     592.00  E(vib)   ...       0.10
freq.     603.95  E(vib)   ...       0.10
freq.     614.70  E(vib)   ...       0.10
freq.     662.57  E(vib)   ...       0.08
freq.     698.54  E(vib)   ...       0.07
freq.     714.77  E(vib)   ...       0.07
freq.     745.17  E(vib)   ...       0.06
freq.     757.59  E(vib)   ...       0.06
freq.     775.67  E(vib)   ...       0.05
freq.     788.06  E(vib)   ...       0.05
freq.     811.67  E(vib)   ...       0.05
freq.     813.06  E(vib)   ...       0.05
freq.     834.48  E(vib)   ...       0.04
freq.     839.00  E(vib)   ...       0.04
freq.     878.06  E(vib)   ...       0.04
freq.     893.51  E(vib)   ...       0.03
freq.     896.16  E(vib)   ...       0.03
freq.     903.34  E(vib)   ...       0.03
freq.     918.08  E(vib)   ...       0.03
freq.     931.87  E(vib)   ...       0.03
freq.     939.94  E(vib)   ...       0.03
freq.     949.32  E(vib)   ...       0.03
freq.     951.17  E(vib)   ...       0.03
freq.     954.13  E(vib)   ...       0.03
freq.     979.44  E(vib)   ...       0.03
freq.     982.89  E(vib)   ...       0.02
freq.    1000.48  E(vib)   ...       0.02
freq.    1004.23  E(vib)   ...       0.02
freq.    1021.55  E(vib)   ...       0.02
freq.    1024.33  E(vib)   ...       0.02
freq.    1030.33  E(vib)   ...       0.02
freq.    1034.80  E(vib)   ...       0.02
freq.    1036.08  E(vib)   ...       0.02
freq.    1052.08  E(vib)   ...       0.02
freq.    1079.06  E(vib)   ...       0.02
freq.    1082.53  E(vib)   ...       0.02
freq.    1094.55  E(vib)   ...       0.02
freq.    1098.40  E(vib)   ...       0.02
freq.    1122.37  E(vib)   ...       0.01
freq.    1123.27  E(vib)   ...       0.01
freq.    1130.95  E(vib)   ...       0.01
freq.    1150.03  E(vib)   ...       0.01
freq.    1164.23  E(vib)   ...       0.01
freq.    1168.33  E(vib)   ...       0.01
freq.    1185.22  E(vib)   ...       0.01
freq.    1191.38  E(vib)   ...       0.01
freq.    1204.62  E(vib)   ...       0.01
freq.    1219.49  E(vib)   ...       0.01
freq.    1227.68  E(vib)   ...       0.01
freq.    1239.63  E(vib)   ...       0.01
freq.    1247.58  E(vib)   ...       0.01
freq.    1261.03  E(vib)   ...       0.01
freq.    1268.88  E(vib)   ...       0.01
freq.    1272.62  E(vib)   ...       0.01
freq.    1294.20  E(vib)   ...       0.01
freq.    1300.18  E(vib)   ...       0.01
freq.    1305.74  E(vib)   ...       0.01
freq.    1319.70  E(vib)   ...       0.01
freq.    1335.29  E(vib)   ...       0.01
freq.    1351.03  E(vib)   ...       0.01
freq.    1387.03  E(vib)   ...       0.00
freq.    1394.14  E(vib)   ...       0.00
freq.    1411.21  E(vib)   ...       0.00
freq.    1414.01  E(vib)   ...       0.00
freq.    1419.66  E(vib)   ...       0.00
freq.    1427.86  E(vib)   ...       0.00
freq.    1434.53  E(vib)   ...       0.00
freq.    1442.84  E(vib)   ...       0.00
freq.    1450.63  E(vib)   ...       0.00
freq.    1468.22  E(vib)   ...       0.00
freq.    1486.55  E(vib)   ...       0.00
freq.    1486.87  E(vib)   ...       0.00
freq.    1492.77  E(vib)   ...       0.00
freq.    1495.49  E(vib)   ...       0.00
freq.    1497.34  E(vib)   ...       0.00
freq.    1501.84  E(vib)   ...       0.00
freq.    1502.80  E(vib)   ...       0.00
freq.    1506.86  E(vib)   ...       0.00
freq.    1513.14  E(vib)   ...       0.00
freq.    1515.73  E(vib)   ...       0.00
freq.    1519.11  E(vib)   ...       0.00
freq.    1519.79  E(vib)   ...       0.00
freq.    1524.93  E(vib)   ...       0.00
freq.    1531.43  E(vib)   ...       0.00
freq.    1540.32  E(vib)   ...       0.00
freq.    1542.63  E(vib)   ...       0.00
freq.    1549.30  E(vib)   ...       0.00
freq.    1609.96  E(vib)   ...       0.00
freq.    1648.16  E(vib)   ...       0.00
freq.    1682.95  E(vib)   ...       0.00
freq.    2428.11  E(vib)   ...       0.00
freq.    2481.57  E(vib)   ...       0.00
freq.    3059.81  E(vib)   ...       0.00
freq.    3073.55  E(vib)   ...       0.00
freq.    3083.17  E(vib)   ...       0.00
freq.    3083.74  E(vib)   ...       0.00
freq.    3085.26  E(vib)   ...       0.00
freq.    3085.90  E(vib)   ...       0.00
freq.    3087.80  E(vib)   ...       0.00
freq.    3093.00  E(vib)   ...       0.00
freq.    3122.54  E(vib)   ...       0.00
freq.    3126.87  E(vib)   ...       0.00
freq.    3148.37  E(vib)   ...       0.00
freq.    3163.05  E(vib)   ...       0.00
freq.    3164.98  E(vib)   ...       0.00
freq.    3165.54  E(vib)   ...       0.00
freq.    3168.60  E(vib)   ...       0.00

Rotational constants in cm-1:     0.011190     0.009494     0.007225

                      ***********************HURRAY********************
                      ***********************HURRAY********************
                             ****ORCA TERMINATED NORMALLY****
TOTAL RUN TIME: 0 days 3 hours 30 minutes 11 seconds 299 msec
