                         Program Version 6.1.0  -  RELEASE   -
|  1> # Automatically generated ORCA input
|  2>
|  3> # Number of cores
|  4> %pal nprocs 8 end
|  5> # RAM per core
|  6> %maxcore 3840
|  7>
|  8> ! wB97X-D3
|  9> ! 6-31G**
| 10> ! TightSCF
| 11> ! Freq
| 12> ! NoSym
| 13>
| 14> %geom
| 15>   Calc_Hess true
| 16> end
| 17> %Output
| 18>   JSONPropFile True
| 19> End
| 20>
| 21>
| 22> *xyz 0 1
| 23> C         0.39866200     -2.00789900      0.96565000
| 24> C         1.37293100     -1.03016300      1.14865700
| 25> C         0.99970900      0.22669800      1.60780900
| 26> C        -0.33474600      0.49489100      1.89846500
| 27> C        -1.30934800     -0.48922500      1.72147700
| 28> C        -0.94919300     -1.75942200      1.23247400
| 29> H         0.69422700     -2.98196800      0.58267800
| 30> H         2.41208800     -1.24534600      0.92122100
| 31> H         1.74645100      1.00221700      1.74827900
| 32> H        -0.61366700      1.47657600      2.26709100
| 33> N        -2.68994400     -0.25217600      2.00225100
| 34> B        -2.06513000     -2.84204800      0.95546600
| 35> H        -2.42087900     -3.62742600      1.78897800
| 36> H        -3.12591800     -2.22202700      0.49217700
| 37> H        -1.79316200     -3.52666800     -0.12323900
| 38> C        -3.14674200      1.11605100      1.84935100
| 39> H        -4.24103100      1.12412600      1.83731000
| 40> H        -2.81959000      1.78642800      2.66362700
| 41> H        -2.78967300      1.52155400      0.90013700
| 42> C        -3.13738600     -0.82718100      3.26484800
| 43> H        -2.73911600     -0.28094300      4.13710100
| 44> H        -4.23083100     -0.79883600      3.31022300
| 45> H        -2.81969000     -1.86861900      3.34257700
| 46> B        -2.88015300     -2.90684100     -0.61682000
| 47> H        -2.48722100     -2.14704600     -1.44840700
| 48> C        -4.06646100     -3.89677700     -0.90853800
| 49> C        -4.31035600     -4.38030400     -2.21562600
| 50> C        -4.98133100     -4.22988400      0.09719700
| 51> C        -5.46362800     -5.13146100     -2.47097400
| 52> C        -6.12228100     -4.98331900     -0.15656600
| 53> H        -4.80904600     -3.86062600      1.10498400
| 54> C        -6.36366500     -5.42326200     -1.45173500
| 55> H        -5.65882200     -5.50565700     -3.46973200
| 56> H        -6.81959400     -5.21055300      0.64307100
| 57> H        -7.25122900     -6.00791700     -1.67480100
| 58> N        -3.39087400     -4.07210000     -3.24732900
| 59> C        -3.87957600     -4.13407400     -4.60876900
| 60> H        -3.16326200     -3.62642600     -5.26200700
| 61> H        -4.00337500     -5.16386800     -4.98914600
| 62> H        -4.83772900     -3.61567500     -4.68704100
| 63> C        -2.07231300     -4.67364900     -3.12818700
| 64> H        -2.06790900     -5.72999700     -3.44851900
| 65> H        -1.35777300     -4.12203200     -3.74719300
| 66> H        -1.71973900     -4.63916100     -2.09722700
| 67> *
| 68>
| 69>
| 70>                          ****END OF INPUT****

CARTESIAN COORDINATES (ANGSTROEM)
---------------------------------
  C      0.398662   -2.007899    0.965650
  C      1.372931   -1.030163    1.148657
  C      0.999709    0.226698    1.607809
  C     -0.334746    0.494891    1.898465
  C     -1.309348   -0.489225    1.721477
  C     -0.949193   -1.759422    1.232474
  H      0.694227   -2.981968    0.582678
  H      2.412088   -1.245346    0.921221
  H      1.746451    1.002217    1.748279
  H     -0.613667    1.476576    2.267091
  N     -2.689944   -0.252176    2.002251
  B     -2.065130   -2.842048    0.955466
  H     -2.420879   -3.627426    1.788978
  H     -3.125918   -2.222027    0.492177
  H     -1.793162   -3.526668   -0.123239
  C     -3.146742    1.116051    1.849351
  H     -4.241031    1.124126    1.837310
  H     -2.819590    1.786428    2.663627
  H     -2.789673    1.521554    0.900137
  C     -3.137386   -0.827181    3.264848
  H     -2.739116   -0.280943    4.137101
  H     -4.230831   -0.798836    3.310223
  H     -2.819690   -1.868619    3.342577
  B     -2.880153   -2.906841   -0.616820
  H     -2.487221   -2.147046   -1.448407
  C     -4.066461   -3.896777   -0.908538
  C     -4.310356   -4.380304   -2.215626
  C     -4.981331   -4.229884    0.097197
  C     -5.463628   -5.131461   -2.470974
  C     -6.122281   -4.983319   -0.156566
  H     -4.809046   -3.860626    1.104984
  C     -6.363665   -5.423262   -1.451735
  H     -5.658822   -5.505657   -3.469732
  H     -6.819594   -5.210553    0.643071
  H     -7.251229   -6.007917   -1.674801
  N     -3.390874   -4.072100   -3.247329
  C     -3.879576   -4.134074   -4.608769
  H     -3.163262   -3.626426   -5.262007
  H     -4.003375   -5.163868   -4.989146
  H     -4.837729   -3.615675   -4.687041
  C     -2.072313   -4.673649   -3.128187
  H     -2.067909   -5.729997   -3.448519
  H     -1.357773   -4.122032   -3.747193
  H     -1.719739   -4.639161   -2.097227

 Total Charge           Charge          ....    0
 Multiplicity           Mult            ....    1
 Number of Electrons    NEL             ....  144
 Basis Dimension        Dim             ....  400

ORBITAL ENERGIES
----------------

  NO   OCC          E(Eh)            E(eV)
   0   2.0000     -14.435935      -392.8218
   1   2.0000     -14.435485      -392.8095
   2   2.0000     -10.317999      -280.7670
   3   2.0000     -10.313506      -280.6448
   4   2.0000     -10.307040      -280.4688
   5   2.0000     -10.304548      -280.4010
   6   2.0000     -10.304058      -280.3877
   7   2.0000     -10.303665      -280.3770
   8   2.0000     -10.285061      -279.8707
   9   2.0000     -10.282873      -279.8112
  10   2.0000     -10.282780      -279.8087
  11   2.0000     -10.282315      -279.7960
  12   2.0000     -10.279544      -279.7206
  13   2.0000     -10.278396      -279.6894
  14   2.0000     -10.277635      -279.6687
  15   2.0000     -10.276092      -279.6267
  16   2.0000     -10.267232      -279.3856
  17   2.0000     -10.265532      -279.3393
  18   2.0000      -6.850361      -186.4078
  19   2.0000      -6.849178      -186.3756
  20   2.0000      -1.052599       -28.6427
  21   2.0000      -1.050431       -28.5837
  22   2.0000      -0.955303       -25.9951
  23   2.0000      -0.954856       -25.9829
  24   2.0000      -0.860692       -23.4206
  25   2.0000      -0.854374       -23.2487
  26   2.0000      -0.851626       -23.1739
  27   2.0000      -0.850341       -23.1389
  28   2.0000      -0.822192       -22.3730
  29   2.0000      -0.820527       -22.3277
  30   2.0000      -0.771533       -20.9945
  31   2.0000      -0.754972       -20.5438
  32   2.0000      -0.747927       -20.3521
  33   2.0000      -0.705516       -19.1981
  34   2.0000      -0.694511       -18.8986
  35   2.0000      -0.676252       -18.4018
  36   2.0000      -0.669548       -18.2193
  37   2.0000      -0.621455       -16.9106
  38   2.0000      -0.611996       -16.6532
  39   2.0000      -0.574594       -15.6355
  40   2.0000      -0.570620       -15.5274
  41   2.0000      -0.568178       -15.4609
  42   2.0000      -0.563399       -15.3309
  43   2.0000      -0.559570       -15.2267
  44   2.0000      -0.556261       -15.1366
  45   2.0000      -0.543176       -14.7806
  46   2.0000      -0.529836       -14.4176
  47   2.0000      -0.526964       -14.3394
  48   2.0000      -0.516877       -14.0649
  49   2.0000      -0.512693       -13.9511
  50   2.0000      -0.501597       -13.6492
  51   2.0000      -0.495615       -13.4864
  52   2.0000      -0.490089       -13.3360
  53   2.0000      -0.485693       -13.2164
  54   2.0000      -0.481134       -13.0923
  55   2.0000      -0.474662       -12.9162
  56   2.0000      -0.472618       -12.8606
  57   2.0000      -0.463215       -12.6047
  58   2.0000      -0.459342       -12.4993
  59   2.0000      -0.455816       -12.4034
  60   2.0000      -0.452038       -12.3006
  61   2.0000      -0.438470       -11.9314
  62   2.0000      -0.427763       -11.6400
  63   2.0000      -0.420140       -11.4326
  64   2.0000      -0.416278       -11.3275
  65   2.0000      -0.392969       -10.6932
  66   2.0000      -0.351269        -9.5585
  67   2.0000      -0.344377        -9.3710
  68   2.0000      -0.325862        -8.8672
  69   2.0000      -0.323397        -8.8001
  70   2.0000      -0.287539        -7.8243
  71   2.0000      -0.279211        -7.5977
  72   0.0000       0.045730         1.2444
  73   0.0000       0.078194         2.1278
  74   0.0000       0.087176         2.3722
  75   0.0000       0.090260         2.4561
  76   0.0000       0.114778         3.1233

MULLIKEN ATOMIC CHARGES
-----------------------
   0 C :   -0.168812
   1 C :   -0.108760
   2 C :   -0.138257
   3 C :   -0.123819
   4 C :    0.166672
   5 C :    0.029686
   6 H :    0.104661
   7 H :    0.114896
   8 H :    0.117956
   9 H :    0.109726
  10 N :   -0.479254
  11 B :    0.031834
  12 H :   -0.024020
  13 H :    0.047588
  14 H :   -0.004152
  15 C :   -0.205022
  16 H :    0.127316
  17 H :    0.095883
  18 H :    0.138905
  19 C :   -0.202382
  20 H :    0.104348
  21 H :    0.123141
  22 H :    0.138866
  23 B :    0.015887
  24 H :    0.007478
  25 C :    0.016333
  26 C :    0.192823
  27 C :   -0.158003
  28 C :   -0.134671
  29 C :   -0.115591
  30 H :    0.107331
  31 C :   -0.133327
  32 H :    0.109553
  33 H :    0.114399
  34 H :    0.118626
  35 N :   -0.456344
  36 C :   -0.206400
  37 H :    0.127842
  38 H :    0.097293
  39 H :    0.138183
  40 C :   -0.193910
  41 H :    0.105351
  42 H :    0.129264
  43 H :    0.120885
Sum of atomic charges:    0.0000000

LOEWDIN ATOMIC CHARGES
----------------------
   0 C :   -0.067961
   1 C :   -0.091059
   2 C :   -0.075805
   3 C :   -0.102773
   4 C :    0.033322
   5 C :   -0.045692
   6 H :    0.073648
   7 H :    0.077320
   8 H :    0.078052
   9 H :    0.077497
  10 N :   -0.146687
  11 B :   -0.199211
  12 H :    0.018476
  13 H :    0.181010
  14 H :    0.159368
  15 C :   -0.127596
  16 H :    0.075421
  17 H :    0.049959
  18 H :    0.080890
  19 C :   -0.120219
  20 H :    0.055012
  21 H :    0.071947
  22 H :    0.082971
  23 B :   -0.171515
  24 H :    0.032832
  25 C :   -0.067990
  26 C :    0.048632
  27 C :   -0.054455
  28 C :   -0.113637
  29 C :   -0.101714
  30 H :    0.076606
  31 C :   -0.065638
  32 H :    0.077449
  33 H :    0.077034
  34 H :    0.078472
  35 N :   -0.128034
  36 C :   -0.126933
  37 H :    0.076173
  38 H :    0.050580
  39 H :    0.080541
  40 C :   -0.114040
  41 H :    0.055707
  42 H :    0.074304
  43 H :    0.077737

  Mayer bond orders larger than 0.100000
B(  0-C ,  1-C ) :   1.4312 B(  0-C ,  5-C ) :   1.4187 B(  0-C ,  6-H ) :   0.9468
B(  1-C ,  2-C ) :   1.4581 B(  1-C ,  7-H ) :   0.9495 B(  2-C ,  3-C ) :   1.4286
B(  2-C ,  8-H ) :   0.9473 B(  3-C ,  4-C ) :   1.4142 B(  3-C ,  9-H ) :   0.9413
B(  4-C ,  5-C ) :   1.4151 B(  4-C , 10-N ) :   0.9579 B(  5-C , 11-B ) :   0.9955
B( 10-N , 15-C ) :   0.9751 B( 10-N , 19-C ) :   0.9547 B( 11-B , 12-H ) :   0.9505
B( 11-B , 13-H ) :   0.4874 B( 11-B , 14-H ) :   0.4957 B( 11-B , 23-B ) :   0.4981
B( 13-H , 23-B ) :   0.4498 B( 14-H , 23-B ) :   0.4412 B( 15-C , 16-H ) :   0.9625
B( 15-C , 17-H ) :   0.9432 B( 15-C , 18-H ) :   0.9625 B( 19-C , 20-H ) :   0.9491
B( 19-C , 21-H ) :   0.9619 B( 19-C , 22-H ) :   0.9551 B( 23-B , 24-H ) :   0.9680
B( 23-B , 25-C ) :   1.0144 B( 25-C , 26-C ) :   1.3719 B( 25-C , 27-C ) :   1.4144
B( 26-C , 28-C ) :   1.4027 B( 26-C , 35-N ) :   0.9919 B( 27-C , 29-C ) :   1.4339
B( 27-C , 30-H ) :   0.9412 B( 28-C , 31-C ) :   1.4319 B( 28-C , 32-H ) :   0.9406
B( 29-C , 31-C ) :   1.4510 B( 29-C , 33-H ) :   0.9495 B( 31-C , 34-H ) :   0.9471
B( 35-N , 36-C ) :   0.9773 B( 35-N , 40-C ) :   0.9574 B( 36-C , 37-H ) :   0.9620
B( 36-C , 38-H ) :   0.9412 B( 36-C , 39-H ) :   0.9608 B( 40-C , 41-H ) :   0.9487
B( 40-C , 42-H ) :   0.9608 B( 40-C , 43-H ) :   0.9601

Dispersion correction           -0.019815470
FINAL SINGLE POINT ENERGY      -783.147806466720

DIPOLE MOMENT
-------------

Method             : SCF
Type of density    : Electron Density
Multiplicity       :   1
Irrep              :   0
Energy             :  -783.1279909965246588 Eh
Basis              : AO
                                X                 Y                 Z
Electronic contribution:      1.574261359      -2.115274586       2.387887102
Nuclear contribution   :     -1.642284263       2.159823217      -2.549923967
                        -----------------------------------------
Total Dipole Moment    :     -0.068022904       0.044548631      -0.162036865
                        -----------------------------------------
Magnitude (a.u.)       :      0.181294351
Magnitude (Debye)      :      0.460813619

VIBRATIONAL FREQUENCIES
-----------------------

Scaling factor for frequencies =  1.000000000  (already applied!)

     0:       0.00 cm**-1
     1:       0.00 cm**-1
     2:       0.00 cm**-1
     3:       0.00 cm**-1
     4:       0.00 cm**-1
     5:       0.00 cm**-1
     6:      -7.51 cm**-1  ***imaginary mode***
     7:      27.11 cm**-1
     8:      35.19 cm**-1
     9:      49.29 cm**-1
    10:      70.31 cm**-1
    11:      76.13 cm**-1
    12:      99.34 cm**-1
    13:     120.70 cm**-1
    14:     127.67 cm**-1
    15:     153.38 cm**-1
    16:     184.25 cm**-1
    17:     193.37 cm**-1
    18:     219.60 cm**-1
    19:     250.77 cm**-1
    20:     256.64 cm**-1
    21:     285.41 cm**-1
    22:     291.33 cm**-1
    23:     309.36 cm**-1
    24:     315.46 cm**-1
    25:     338.40 cm**-1
    26:     360.57 cm**-1
    27:     378.33 cm**-1
    28:     385.73 cm**-1
    29:     460.17 cm**-1
    30:     464.26 cm**-1
    31:     487.63 cm**-1
    32:     506.88 cm**-1
    33:     527.21 cm**-1
    34:     549.04 cm**-1
    35:     572.97 cm**-1
    36:     576.79 cm**-1
    37:     589.00 cm**-1
    38:     617.42 cm**-1
    39:     713.43 cm**-1
    40:     733.92 cm**-1
    41:     743.68 cm**-1
    42:     759.55 cm**-1
    43:     772.21 cm**-1
    44:     789.35 cm**-1
    45:     799.01 cm**-1
    46:     812.83 cm**-1
    47:     825.42 cm**-1
    48:     852.01 cm**-1
    49:     884.85 cm**-1
    50:     896.59 cm**-1
    51:     905.67 cm**-1
    52:     942.85 cm**-1
    53:     972.83 cm**-1
    54:     977.49 cm**-1
    55:     995.24 cm**-1
    56:     998.70 cm**-1
    57:    1009.16 cm**-1
    58:    1009.20 cm**-1
    59:    1056.81 cm**-1
    60:    1068.40 cm**-1
    61:    1084.98 cm**-1
    62:    1088.64 cm**-1
    63:    1089.84 cm**-1
    64:    1093.23 cm**-1
    65:    1097.35 cm**-1
    66:    1128.48 cm**-1
    67:    1128.92 cm**-1
    68:    1139.10 cm**-1
    69:    1150.63 cm**-1
    70:    1180.70 cm**-1
    71:    1189.76 cm**-1
    72:    1191.95 cm**-1
    73:    1195.22 cm**-1
    74:    1200.43 cm**-1
    75:    1201.42 cm**-1
    76:    1233.51 cm**-1
    77:    1251.20 cm**-1
    78:    1269.86 cm**-1
    79:    1277.58 cm**-1
    80:    1316.65 cm**-1
    81:    1320.61 cm**-1
    82:    1336.66 cm**-1
    83:    1342.46 cm**-1
    84:    1376.47 cm**-1
    85:    1391.09 cm**-1
    86:    1458.50 cm**-1
    87:    1458.70 cm**-1
    88:    1483.56 cm**-1
    89:    1484.70 cm**-1
    90:    1492.50 cm**-1
    91:    1496.22 cm**-1
    92:    1501.69 cm**-1
    93:    1503.47 cm**-1
    94:    1509.32 cm**-1
    95:    1510.92 cm**-1
    96:    1517.38 cm**-1
    97:    1518.70 cm**-1
    98:    1537.08 cm**-1
    99:    1537.74 cm**-1
   100:    1552.90 cm**-1
   101:    1554.06 cm**-1
   102:    1656.23 cm**-1
   103:    1662.33 cm**-1
   104:    1668.14 cm**-1
   105:    1692.90 cm**-1
   106:    1696.25 cm**-1
   107:    1810.58 cm**-1
   108:    2042.10 cm**-1
   109:    2177.13 cm**-1
   110:    2627.60 cm**-1
   111:    2685.86 cm**-1
   112:    2985.36 cm**-1
   113:    2989.76 cm**-1
   114:    2996.34 cm**-1
   115:    2999.96 cm**-1
   116:    3110.86 cm**-1
   117:    3110.96 cm**-1
   118:    3112.80 cm**-1
   119:    3116.20 cm**-1
   120:    3171.00 cm**-1
   121:    3172.58 cm**-1
   122:    3178.57 cm**-1
   123:    3190.35 cm**-1
   124:    3199.85 cm**-1
   125:    3208.52 cm**-1
   126:    3218.87 cm**-1
   127:    3219.07 cm**-1
   128:    3235.56 cm**-1
   129:    3239.32 cm**-1
   130:    3244.67 cm**-1
   131:    3249.16 cm**-1

IR SPECTRUM
-----------

 Mode   freq       eps      Int      T**2         TX        TY        TZ
       cm**-1   L/(mol*cm) km/mol    a.u.
----------------------------------------------------------------------------
  7:     27.11   0.000017    0.08  0.000192  ( 0.006925  0.005919 -0.010434)
  8:     35.19   0.000035    0.18  0.000314  ( 0.007502 -0.010388  0.012226)
  9:     49.29   0.000142    0.72  0.000897  ( 0.027547  0.011752 -0.000483)
 10:     70.31   0.000292    1.48  0.001297  (-0.032435 -0.015602 -0.001331)
 11:     76.13   0.000151    0.76  0.000620  ( 0.010628  0.002018 -0.022438)
 12:     99.34   0.000151    0.76  0.000473  ( 0.012773 -0.001133 -0.017570)
 13:    120.70   0.000119    0.60  0.000307  ( 0.007799 -0.009400  0.012553)
 14:    127.67   0.000145    0.73  0.000355  (-0.007855 -0.017073 -0.001186)
 15:    153.38   0.000062    0.32  0.000127  (-0.010840 -0.002757 -0.001417)
 16:    184.25   0.000084    0.42  0.000142  ( 0.005237  0.010525 -0.002047)
 17:    193.37   0.000047    0.24  0.000076  ( 0.004141  0.003401  0.006887)
 18:    219.60   0.000426    2.15  0.000605  (-0.002820 -0.019413  0.014853)
 19:    250.77   0.000636    3.21  0.000791  ( 0.002317 -0.023581  0.015162)
 20:    256.64   0.000187    0.94  0.000227  ( 0.010692  0.010620 -0.000229)
 21:    285.41   0.000024    0.12  0.000027  (-0.005140  0.000532 -0.000288)
 22:    291.33   0.000472    2.38  0.000505  ( 0.016627  0.014749  0.003372)
 23:    309.36   0.000212    1.07  0.000214  ( 0.003915  0.005542  0.012960)
 24:    315.46   0.000231    1.17  0.000229  ( 0.008501  0.012506 -0.000449)
 25:    338.40   0.000089    0.45  0.000082  ( 0.002037  0.008755 -0.000952)
 26:    360.57   0.000387    1.96  0.000335  (-0.015168 -0.006032  0.008288)
 27:    378.33   0.000179    0.91  0.000148  ( 0.005379  0.010764  0.001804)
 28:    385.73   0.002083   10.52  0.001685  (-0.014549 -0.028980 -0.025167)
 29:    460.17   0.000362    1.83  0.000245  (-0.011153 -0.002107 -0.010792)
 30:    464.26   0.002258   11.41  0.001518  (-0.012823 -0.036717 -0.002275)
 31:    487.63   0.002862   14.46  0.001832  ( 0.028498  0.027056  0.016952)
 32:    506.88   0.001149    5.81  0.000708  (-0.012551  0.006656 -0.022487)
 33:    527.21   0.002564   12.96  0.001518  ( 0.013649  0.032768  0.016049)
 34:    549.04   0.000269    1.36  0.000153  (-0.004954 -0.002451 -0.011073)
 35:    572.97   0.000709    3.59  0.000386  (-0.013726  0.013059 -0.005241)
 36:    576.79   0.000743    3.75  0.000402  (-0.003314  0.009842 -0.017151)
 37:    589.00   0.001283    6.48  0.000680  (-0.011467 -0.010159 -0.021099)
 38:    617.42   0.000192    0.97  0.000097  (-0.004661 -0.005020 -0.007082)
 39:    713.43   0.000695    3.51  0.000304  ( 0.015115 -0.006364  0.005932)
 40:    733.92   0.004800   24.26  0.002041  ( 0.018705 -0.000819  0.041113)
 41:    743.68   0.002175   10.99  0.000913  ( 0.017781 -0.001421  0.024380)
 42:    759.55   0.004399   22.23  0.001807  ( 0.022065 -0.012931  0.033958)
 43:    772.21   0.001141    5.76  0.000461  (-0.018668  0.009447 -0.004816)
 44:    789.35   0.005380   27.19  0.002127  (-0.013914  0.042908  0.009607)
 45:    799.01   0.004213   21.29  0.001645  (-0.003173  0.017198 -0.036598)
 46:    812.83   0.004024   20.34  0.001545  ( 0.022851  0.019112  0.025640)
 47:    825.42   0.002678   13.53  0.001013  ( 0.019082  0.022704  0.011528)
 48:    852.01   0.009558   48.30  0.003501  (-0.031949 -0.034484 -0.035927)
 49:    884.85   0.000469    2.37  0.000166  ( 0.008407  0.006461  0.007289)
 50:    896.59   0.000341    1.72  0.000119  (-0.007393  0.003562 -0.007168)
 51:    905.67   0.000887    4.48  0.000306  ( 0.002854  0.008395  0.015066)
 52:    942.85   0.001728    8.73  0.000572  ( 0.015153 -0.015762 -0.009684)
 53:    972.83   0.000100    0.50  0.000032  ( 0.001630 -0.003315  0.004284)
 54:    977.49   0.000093    0.47  0.000030  ( 0.000352 -0.005417  0.000424)
 55:    995.24   0.006294   31.81  0.001974  (-0.022191  0.022012  0.031569)
 56:    998.70   0.006380   32.24  0.001994  ( 0.020858 -0.017769 -0.035255)
 57:   1009.16   0.000016    0.08  0.000005  (-0.000632  0.001322  0.001696)
 58:   1009.20   0.000089    0.45  0.000027  (-0.001462 -0.000108 -0.005029)
 59:   1056.81   0.007563   38.22  0.002233  (-0.029086 -0.024388 -0.028149)
 60:   1068.40   0.001837    9.28  0.000536  ( 0.013031  0.009397  0.016685)
 61:   1084.98   0.006000   30.32  0.001726  ( 0.025908  0.023113  0.022812)
 62:   1088.64   0.001716    8.67  0.000492  ( 0.000669  0.004562 -0.021694)
 63:   1089.84   0.001617    8.17  0.000463  (-0.017395  0.004644 -0.011786)
 64:   1093.23   0.004613   23.31  0.001317  ( 0.001272 -0.021170 -0.029448)
 65:   1097.35   0.002975   15.03  0.000846  ( 0.015666  0.023670  0.006347)
 66:   1128.48   0.000721    3.65  0.000199  ( 0.000255  0.009353 -0.010581)
 67:   1128.92   0.000492    2.49  0.000136  ( 0.010446 -0.005189  0.000310)
 68:   1139.10   0.007318   36.98  0.002005  (-0.043503 -0.010209  0.002851)
 69:   1150.63   0.002352   11.89  0.000638  (-0.024078 -0.004847  0.005892)
 70:   1180.70   0.003535   17.86  0.000934  ( 0.003518  0.008445 -0.029163)
 71:   1189.76   0.000360    1.82  0.000094  (-0.007657  0.000372 -0.005976)
 72:   1191.95   0.000717    3.62  0.000188  ( 0.004377 -0.009948 -0.008347)
 73:   1195.22   0.001178    5.95  0.000307  ( 0.001658 -0.008149 -0.015437)
 74:   1200.43   0.004269   21.57  0.001110  ( 0.031089 -0.001292 -0.011896)
 75:   1201.42   0.001443    7.29  0.000375  (-0.002897  0.003623 -0.018796)
 76:   1233.51   0.021917  110.76  0.005545  (-0.045303 -0.045864 -0.037266)
 77:   1251.20   0.006176   31.21  0.001540  ( 0.022377 -0.010032  0.030643)
 78:   1269.86   0.001299    6.56  0.000319  ( 0.002244  0.000798  0.017705)
 79:   1277.58   0.003393   17.15  0.000829  (-0.004272 -0.026718  0.009831)
 80:   1316.65   0.002694   13.61  0.000639  ( 0.022277  0.011925 -0.000152)
 81:   1320.61   0.002082   10.52  0.000492  (-0.020215 -0.008449 -0.003442)
 82:   1336.66   0.001063    5.37  0.000248  ( 0.001114  0.015049  0.004531)
 83:   1342.46   0.002026   10.24  0.000471  ( 0.018182  0.004668  0.010893)
 84:   1376.47   0.005744   29.03  0.001302  (-0.022345  0.017279  0.022457)
 85:   1391.09   0.010252   51.81  0.002300  (-0.021447  0.011570  0.041304)
 86:   1458.50   0.000051    0.26  0.000011  ( 0.002125 -0.000152 -0.002504)
 87:   1458.70   0.000309    1.56  0.000066  ( 0.004578  0.001290  0.006591)
 88:   1483.56   0.004489   22.69  0.000944  (-0.010476  0.006902  0.028053)
 89:   1484.70   0.001758    8.88  0.000369  (-0.014889  0.006388  0.010341)
 90:   1492.50   0.002103   10.63  0.000440  (-0.020217 -0.004070 -0.003793)
 91:   1496.22   0.001147    5.80  0.000239  ( 0.003711  0.014945 -0.001445)
 92:   1501.69   0.002856   14.43  0.000594  ( 0.018963 -0.013930 -0.006318)
 93:   1503.47   0.005532   27.95  0.001148  ( 0.022825  0.004806 -0.024578)
 94:   1509.32   0.006746   34.09  0.001395  ( 0.008309  0.015688 -0.032859)
 95:   1510.92   0.002394   12.10  0.000495  ( 0.021800  0.004396 -0.000032)
 96:   1517.38   0.001022    5.17  0.000210  (-0.008506  0.011601  0.001822)
 97:   1518.70   0.003594   18.16  0.000739  (-0.015591  0.007817 -0.020843)
 98:   1537.08   0.002911   14.71  0.000591  (-0.016058 -0.008164 -0.016325)
 99:   1537.74   0.000263    1.33  0.000053  ( 0.001238 -0.002573 -0.006721)
100:   1552.90   0.029392  148.53  0.005906  ( 0.028130 -0.032135 -0.063894)
101:   1554.06   0.012939   65.39  0.002598  (-0.016680 -0.002997 -0.048073)
102:   1656.23   0.150493  760.53  0.028356  (-0.103642 -0.072146 -0.111396)
103:   1662.33   0.009433   47.67  0.001771  (-0.029214 -0.021089 -0.021742)
104:   1668.14   0.064399  325.44  0.012047  ( 0.084539  0.033513  0.061460)
105:   1692.90   0.010591   53.52  0.001952  ( 0.026483  0.004792 -0.035042)
106:   1696.25   0.019167   96.86  0.003526  (-0.046729 -0.017015 -0.032452)
107:   1810.58   0.008823   44.59  0.001521  (-0.016594 -0.013944 -0.032417)
108:   2042.10   0.002177   11.00  0.000333  (-0.006776  0.013643  0.010032)
109:   2177.13   0.009571   48.37  0.001372  (-0.013348 -0.025129 -0.023712)
110:   2627.60   0.017427   88.07  0.002070  (-0.013143 -0.030571  0.031022)
111:   2685.86   0.010500   53.06  0.001220  ( 0.012911  0.024465 -0.021325)
112:   2985.36   0.015366   77.65  0.001606  ( 0.010146  0.019263  0.033648)
113:   2989.76   0.013663   69.05  0.001426  ( 0.003031 -0.035907 -0.011297)
114:   2996.34   0.022384  113.12  0.002331  (-0.023374  0.035384  0.023085)
115:   2999.96   0.019780   99.96  0.002058  (-0.005684  0.013096  0.043056)
116:   3110.86   0.006580   33.25  0.000660  ( 0.011070  0.017659 -0.015024)
117:   3110.96   0.008581   43.36  0.000861  ( 0.022505 -0.009392  0.016311)
118:   3112.80   0.005481   27.70  0.000549  (-0.020947 -0.010497 -0.000726)
119:   3116.20   0.005968   30.16  0.000598  ( 0.019253  0.014638 -0.003559)
120:   3171.00   0.003432   17.34  0.000338  ( 0.016878 -0.004840 -0.005426)
121:   3172.58   0.003269   16.52  0.000322  (-0.011206 -0.003562  0.013537)
122:   3178.57   0.003493   17.65  0.000343  (-0.012926  0.012918  0.003004)
123:   3190.35   0.005125   25.90  0.000501  ( 0.000023  0.000126  0.022389)
124:   3199.85   0.002532   12.79  0.000247  (-0.003009  0.014465  0.005348)
125:   3208.52   0.001413    7.14  0.000137  ( 0.002063  0.004597  0.010584)
126:   3218.87   0.001164    5.88  0.000113  (-0.004994 -0.009207 -0.001771)
127:   3219.07   0.002169   10.96  0.000210  ( 0.010194  0.007789  0.006759)
128:   3235.56   0.004901   24.77  0.000473  (-0.017210  0.011957  0.005789)
129:   3239.32   0.005308   26.82  0.000511  ( 0.012660  0.003483 -0.018410)
130:   3244.67   0.004538   22.93  0.000436  ( 0.016361  0.012525  0.003448)
131:   3249.16   0.003324   16.80  0.000319  (-0.012755 -0.009502 -0.008140)

--------------------------
THERMOCHEMISTRY AT 298.15K
--------------------------

Temperature         ...   298.15 K
Pressure            ...     1.00 atm
Total Mass          ...   266.00 AMU
Quasi RRHO          ...     True
Cut-Off Frequency   ...     1.00 cm^-1

Throughout the following assumptions are being made:
  (1) The electronic state is orbitally nondegenerate
  (2) There are no thermally accessible electronically excited states
  (3) Hindered rotations indicated by low frequency modes are not
      treated as such but are treated as vibrations and this may
      cause some error
  (4) All equations used are the standard statistical mechanics
      equations for an ideal gas
  (5) All vibrations are strictly harmonic

freq.      27.11  E(vib)   ...       0.55
freq.      35.19  E(vib)   ...       0.54
freq.      49.29  E(vib)   ...       0.52
freq.      70.31  E(vib)   ...       0.50
freq.      76.13  E(vib)   ...       0.49
freq.      99.34  E(vib)   ...       0.46
freq.     120.70  E(vib)   ...       0.44
freq.     127.67  E(vib)   ...       0.43
freq.     153.38  E(vib)   ...       0.40
freq.     184.25  E(vib)   ...       0.37
freq.     193.37  E(vib)   ...       0.36
freq.     219.60  E(vib)   ...       0.33
freq.     250.77  E(vib)   ...       0.30
freq.     256.64  E(vib)   ...       0.30
freq.     285.41  E(vib)   ...       0.28
freq.     291.33  E(vib)   ...       0.27
freq.     309.36  E(vib)   ...       0.26
freq.     315.46  E(vib)   ...       0.25
freq.     338.40  E(vib)   ...       0.23
freq.     360.57  E(vib)   ...       0.22
freq.     378.33  E(vib)   ...       0.21
freq.     385.73  E(vib)   ...       0.20
freq.     460.17  E(vib)   ...       0.16
freq.     464.26  E(vib)   ...       0.16
freq.     487.63  E(vib)   ...       0.15
freq.     506.88  E(vib)   ...       0.14
freq.     527.21  E(vib)   ...       0.13
freq.     549.04  E(vib)   ...       0.12
freq.     572.97  E(vib)   ...       0.11
freq.     576.79  E(vib)   ...       0.11
freq.     589.00  E(vib)   ...       0.10
freq.     617.42  E(vib)   ...       0.09
freq.     713.43  E(vib)   ...       0.07
freq.     733.92  E(vib)   ...       0.06
freq.     743.68  E(vib)   ...       0.06
freq.     759.55  E(vib)   ...       0.06
freq.     772.21  E(vib)   ...       0.05
freq.     789.35  E(vib)   ...       0.05
freq.     799.01  E(vib)   ...       0.05
freq.     812.83  E(vib)   ...       0.05
freq.     825.42  E(vib)   ...       0.04
freq.     852.01  E(vib)   ...       0.04
freq.     884.85  E(vib)   ...       0.04
freq.     896.59  E(vib)   ...       0.03
freq.     905.67  E(vib)   ...       0.03
freq.     942.85  E(vib)   ...       0.03
freq.     972.83  E(vib)   ...       0.03
freq.     977.49  E(vib)   ...       0.03
freq.     995.24  E(vib)   ...       0.02
freq.     998.70  E(vib)   ...       0.02
freq.    1009.16  E(vib)   ...       0.02
freq.    1009.20  E(vib)   ...       0.02
freq.    1056.81  E(vib)   ...       0.02
freq.    1068.40  E(vib)   ...       0.02
freq.    1084.98  E(vib)   ...       0.02
freq.    1088.64  E(vib)   ...       0.02
freq.    1089.84  E(vib)   ...       0.02
freq.    1093.23  E(vib)   ...       0.02
freq.    1097.35  E(vib)   ...       0.02
freq.    1128.48  E(vib)   ...       0.01
freq.    1128.92  E(vib)   ...       0.01
freq.    1139.10  E(vib)   ...       0.01
freq.    1150.63  E(vib)   ...       0.01
freq.    1180.70  E(vib)   ...       0.01
freq.    1189.76  E(vib)   ...       0.01
freq.    1191.95  E(vib)   ...       0.01
freq.    1195.22  E(vib)   ...       0.01
freq.    1200.43  E(vib)   ...       0.01
freq.    1201.42  E(vib)   ...       0.01
freq.    1233.51  E(vib)   ...       0.01
freq.    1251.20  E(vib)   ...       0.01
freq.    1269.86  E(vib)   ...       0.01
freq.    1277.58  E(vib)   ...       0.01
freq.    1316.65  E(vib)   ...       0.01
freq.    1320.61  E(vib)   ...       0.01
freq.    1336.66  E(vib)   ...       0.01
freq.    1342.46  E(vib)   ...       0.01
freq.    1376.47  E(vib)   ...       0.01
freq.    1391.09  E(vib)   ...       0.00
freq.    1458.50  E(vib)   ...       0.00
freq.    1458.70  E(vib)   ...       0.00
freq.    1483.56  E(vib)   ...       0.00
freq.    1484.70  E(vib)   ...       0.00
freq.    1492.50  E(vib)   ...       0.00
freq.    1496.22  E(vib)   ...       0.00
freq.    1501.69  E(vib)   ...       0.00
freq.    1503.47  E(vib)   ...       0.00
freq.    1509.32  E(vib)   ...       0.00
freq.    1510.92  E(vib)   ...       0.00
freq.    1517.38  E(vib)   ...       0.00
freq.    1518.70  E(vib)   ...       0.00
freq.    1537.08  E(vib)   ...       0.00
freq.    1537.74  E(vib)   ...       0.00
freq.    1552.90  E(vib)   ...       0.00
freq.    1554.06  E(vib)   ...       0.00
freq.    1656.23  E(vib)   ...       0.00
freq.    1662.33  E(vib)   ...       0.00
freq.    1668.14  E(vib)   ...       0.00
freq.    1692.90  E(vib)   ...       0.00
freq.    1696.25  E(vib)   ...       0.00
freq.    1810.58  E(vib)   ...       0.00
freq.    2042.10  E(vib)   ...       0.00
freq.    2177.13  E(vib)   ...       0.00
freq.    2627.60  E(vib)   ...       0.00
freq.    2685.86  E(vib)   ...       0.00
freq.    2985.36  E(vib)   ...       0.00
freq.    2989.76  E(vib)   ...       0.00
freq.    2996.34  E(vib)   ...       0.00
freq.    2999.96  E(vib)   ...       0.00
freq.    3110.86  E(vib)   ...       0.00
freq.    3110.96  E(vib)   ...       0.00
freq.    3112.80  E(vib)   ...       0.00
freq.    3116.20  E(vib)   ...       0.00
freq.    3171.00  E(vib)   ...       0.00
freq.    3172.58  E(vib)   ...       0.00
freq.    3178.57  E(vib)   ...       0.00
freq.    3190.35  E(vib)   ...       0.00
freq.    3199.85  E(vib)   ...       0.00
freq.    3208.52  E(vib)   ...       0.00
freq.    3218.87  E(vib)   ...       0.00
freq.    3219.07  E(vib)   ...       0.00
freq.    3235.56  E(vib)   ...       0.00
freq.    3239.32  E(vib)   ...       0.00
freq.    3244.67  E(vib)   ...       0.00
freq.    3249.16  E(vib)   ...       0.00

------------
INNER ENERGY
------------

The inner energy is: U= E(el) + E(ZPE) + E(vib) + E(rot) + E(trans)
    E(el)   - is the total energy from the electronic structure calculation
              = E(kin-el) + E(nuc-el) + E(el-el) + E(nuc-nuc)
    E(ZPE)  - the the zero temperature vibrational energy from the frequency calculation
    E(vib)  - the the finite temperature correction to E(ZPE) due to population
              of excited vibrational states
    E(rot)  - is the rotational thermal energy
    E(trans)- is the translational thermal energy

Summary of contributions to the inner energy U:
Electronic energy                ...   -783.14780647 Eh
Zero point energy                ...      0.37922827 Eh     237.97 kcal/mol

Rotational constants in cm-1:     0.018416     0.005608     0.004772

                             ****ORCA TERMINATED NORMALLY****
TOTAL RUN TIME: 0 days 0 hours 24 minutes 43 seconds 954 msec
