                         Program Version 6.1.0  -  RELEASE   -
|  1> # Automatically generated ORCA input
|  2>
|  3> # Number of cores
|  4> %pal nprocs 8 end
|  5> # RAM per core
|  6> %maxcore 3840
|  7>
|  8> ! wB97X-D3
|  9> ! 6-31G**
| 10> ! TightSCF
| 11> ! Opt
| 12> ! Freq
| 13> ! NoSym
| 14>
| 15> %geom
| 16>   Calc_Hess true
| 17> end
| 18> %Output
| 19>   JSONPropFile True
| 20> End
| 21>
| 22>
| 23> *xyz 0 1
| 24> C         0.39866200     -2.00789900      0.96565000
| 25> C         1.37293100     -1.03016300      1.14865700
| 26> C         0.99970900      0.22669800      1.60780900
| 27> C        -0.33474600      0.49489100      1.89846500
| 28> C        -1.30934800     -0.48922500      1.72147700
| 29> C        -0.94919300     -1.75942200      1.23247400
| 30> H         0.69422700     -2.98196800      0.58267800
| 31> H         2.41208800     -1.24534600      0.92122100
| 32> H         1.74645100      1.00221700      1.74827900
| 33> H        -0.61366700      1.47657600      2.26709100
| 34> N        -2.68994400     -0.25217600      2.00225100
| 35> B        -2.06513000     -2.84204800      0.95546600
| 36> H        -2.42087900     -3.62742600      1.78897800
| 37> H        -3.12591800     -2.22202700      0.49217700
| 38> H        -1.79316200     -3.52666800     -0.12323900
| 39> C        -3.14674200      1.11605100      1.84935100
| 40> H        -4.24103100      1.12412600      1.83731000
| 41> H        -2.81959000      1.78642800      2.66362700
| 42> H        -2.78967300      1.52155400      0.90013700
| 43> C        -3.13738600     -0.82718100      3.26484800
| 44> H        -2.73911600     -0.28094300      4.13710100
| 45> H        -4.23083100     -0.79883600      3.31022300
| 46> H        -2.81969000     -1.86861900      3.34257700
| 47> B        -2.88015300     -2.90684100     -0.61682000
| 48> H        -2.48722100     -2.14704600     -1.44840700
| 49> C        -4.06646100     -3.89677700     -0.90853800
| 50> C        -4.31035600     -4.38030400     -2.21562600
| 51> C        -4.98133100     -4.22988400      0.09719700
| 52> C        -5.46362800     -5.13146100     -2.47097400
| 53> C        -6.12228100     -4.98331900     -0.15656600
| 54> H        -4.80904600     -3.86062600      1.10498400
| 55> C        -6.36366500     -5.42326200     -1.45173500
| 56> H        -5.65882200     -5.50565700     -3.46973200
| 57> H        -6.81959400     -5.21055300      0.64307100
| 58> H        -7.25122900     -6.00791700     -1.67480100
| 59> N        -3.39087400     -4.07210000     -3.24732900
| 60> C        -3.87957600     -4.13407400     -4.60876900
| 61> H        -3.16326200     -3.62642600     -5.26200700
| 62> H        -4.00337500     -5.16386800     -4.98914600
| 63> H        -4.83772900     -3.61567500     -4.68704100
| 64> C        -2.07231300     -4.67364900     -3.12818700
| 65> H        -2.06790900     -5.72999700     -3.44851900
| 66> H        -1.35777300     -4.12203200     -3.74719300
| 67> H        -1.71973900     -4.63916100     -2.09722700
| 68> *
| 69>
| 70>
| 71>                          ****END OF INPUT****
 Total Charge           Charge          ....    0
 Multiplicity           Mult            ....    1
 Number of Electrons    NEL             ....  144
Dispersion correction           -0.019815470
FINAL SINGLE POINT ENERGY      -783.147806466720
Dispersion correction             ... done (  0.1 sec)
Dispersion correction           -0.019849168
FINAL SINGLE POINT ENERGY      -783.147819431638
Dispersion correction             ... done (  0.0 sec)
Dispersion correction           -0.019810574
FINAL SINGLE POINT ENERGY      -783.147379370034
Dispersion correction             ... done (  0.0 sec)
FINAL SINGLE POINT ENERGY      -783.140774776152
FINAL SINGLE POINT ENERGY      -783.147193118947
FINAL SINGLE POINT ENERGY      -783.147725002072
FINAL SINGLE POINT ENERGY      -783.147768617407
FINAL SINGLE POINT ENERGY      -783.147785072271
FINAL SINGLE POINT ENERGY      -783.147806425100
FINAL SINGLE POINT ENERGY      -783.147817118674
FINAL SINGLE POINT ENERGY      -783.147823316439
FINAL SINGLE POINT ENERGY      -783.147838884488
Dispersion correction             ... done (  0.0 sec)
Dispersion correction           -0.019838027
FINAL SINGLE POINT ENERGY      -783.147841999361
Dispersion correction             ... done (  0.0 sec)
Dispersion correction           -0.019833696
FINAL SINGLE POINT ENERGY      -783.147848474112
Dispersion correction             ... done (  0.0 sec)
                    ***********************HURRAY********************

CARTESIAN COORDINATES (ANGSTROEM)
---------------------------------
  C      0.405825   -2.028339    1.001467
  C      1.382676   -1.052792    1.183704
  C      1.009339    0.212992    1.617924
  C     -0.328002    0.491970    1.884782
  C     -1.305670   -0.489537    1.707795
  C     -0.945143   -1.768859    1.243021
  H      0.703503   -3.010977    0.640439
  H      2.424669   -1.277405    0.975568
  H      1.758725    0.986811    1.759644
  H     -0.607843    1.480730    2.235601
  N     -2.688382   -0.240305    1.968728
  B     -2.058238   -2.856933    0.966895
  H     -2.392734   -3.659670    1.794195
  H     -3.131347   -2.242877    0.524198
  H     -1.792681   -3.527115   -0.124613
  C     -3.134796    1.128597    1.793953
  H     -4.228907    1.143294    1.764648
  H     -2.816572    1.808202    2.604128
  H     -2.762256    1.520687    0.844632
  C     -3.155041   -0.800961    3.230423
  H     -2.755714   -0.258405    4.104513
  H     -4.248469   -0.756689    3.266881
  H     -2.854254   -1.847447    3.316471
  B     -2.890710   -2.912423   -0.595456
  H     -2.517045   -2.131027   -1.417386
  C     -4.069886   -3.913298   -0.890211
  C     -4.312600   -4.385266   -2.201449
  C     -4.976668   -4.269505    0.114919
  C     -5.454029   -5.152253   -2.461466
  C     -6.107665   -5.037060   -0.143784
  H     -4.807700   -3.908264    1.127012
  C     -6.346428   -5.468533   -1.442367
  H     -5.645922   -5.518626   -3.464670
  H     -6.800132   -5.282040    0.655837
  H     -7.225974   -6.065226   -1.668819
  N     -3.402405   -4.047805   -3.234086
  C     -3.902485   -4.080528   -4.592239
  H     -3.202637   -3.539991   -5.237510
  H     -4.012064   -5.100346   -5.002610
  H     -4.870180   -3.576425   -4.646809
  C     -2.079783   -4.643443   -3.137146
  H     -2.069328   -5.692877   -3.479566
  H     -1.372824   -4.073241   -3.748571
  H     -1.720540   -4.628831   -2.107380

 Multiplicity           Mult            ....    1
 Number of Electrons    NEL             ....  144
 Basis Dimension        Dim             ....  400

ORBITAL ENERGIES
----------------

  NO   OCC          E(Eh)            E(eV)
   0   2.0000     -14.435551      -392.8113
   1   2.0000     -14.435491      -392.8097
   2   2.0000     -10.317814      -280.7620
   3   2.0000     -10.313734      -280.6510
   4   2.0000     -10.306927      -280.4657
   5   2.0000     -10.304385      -280.3966
   6   2.0000     -10.304363      -280.3960
   7   2.0000     -10.303734      -280.3788
   8   2.0000     -10.285236      -279.8755
   9   2.0000     -10.283080      -279.8168
  10   2.0000     -10.283053      -279.8161
  11   2.0000     -10.282493      -279.8009
  12   2.0000     -10.279695      -279.7247
  13   2.0000     -10.278554      -279.6937
  14   2.0000     -10.277901      -279.6759
  15   2.0000     -10.276481      -279.6373
  16   2.0000     -10.267565      -279.3946
  17   2.0000     -10.265923      -279.3500
  18   2.0000      -6.850437      -186.4099
  19   2.0000      -6.849638      -186.3881
  20   2.0000      -1.052113       -28.6294
  21   2.0000      -1.050401       -28.5829
  22   2.0000      -0.955256       -25.9938
  23   2.0000      -0.954838       -25.9825
  24   2.0000      -0.860538       -23.4164
  25   2.0000      -0.854285       -23.2463
  26   2.0000      -0.851478       -23.1699
  27   2.0000      -0.850274       -23.1371
  28   2.0000      -0.822040       -22.3688
  29   2.0000      -0.820702       -22.3324
  30   2.0000      -0.771314       -20.9885
  31   2.0000      -0.754792       -20.5389
  32   2.0000      -0.747857       -20.3502
  33   2.0000      -0.705456       -19.1964
  34   2.0000      -0.694400       -18.8956
  35   2.0000      -0.676186       -18.4000
  36   2.0000      -0.669597       -18.2207
  37   2.0000      -0.621246       -16.9049
  38   2.0000      -0.611885       -16.6502
  39   2.0000      -0.574400       -15.6302
  40   2.0000      -0.570647       -15.5281
  41   2.0000      -0.568009       -15.4563
  42   2.0000      -0.563283       -15.3277
  43   2.0000      -0.559244       -15.2178
  44   2.0000      -0.556375       -15.1397
  45   2.0000      -0.542898       -14.7730
  46   2.0000      -0.529654       -14.4126
  47   2.0000      -0.526686       -14.3319
  48   2.0000      -0.517024       -14.0689
  49   2.0000      -0.512629       -13.9493
  50   2.0000      -0.501782       -13.6542
  51   2.0000      -0.495468       -13.4824
  52   2.0000      -0.490170       -13.3382
  53   2.0000      -0.485500       -13.2111
  54   2.0000      -0.481081       -13.0909
  55   2.0000      -0.474474       -12.9111
  56   2.0000      -0.472503       -12.8575
  57   2.0000      -0.463028       -12.5996
  58   2.0000      -0.459349       -12.4995
  59   2.0000      -0.455526       -12.3955
  60   2.0000      -0.452186       -12.3046
  61   2.0000      -0.438133       -11.9222
  62   2.0000      -0.427868       -11.6429
  63   2.0000      -0.420124       -11.4322
  64   2.0000      -0.416416       -11.3313
  65   2.0000      -0.392873       -10.6906
  66   2.0000      -0.350496        -9.5375
  67   2.0000      -0.344513        -9.3747
  68   2.0000      -0.325975        -8.8702
  69   2.0000      -0.323337        -8.7984
  70   2.0000      -0.287402        -7.8206
  71   2.0000      -0.279476        -7.6049
  72   0.0000       0.045857         1.2478
  73   0.0000       0.078152         2.1266
  74   0.0000       0.087135         2.3711
  75   0.0000       0.089928         2.4471
  76   0.0000       0.114253         3.1090

MULLIKEN ATOMIC CHARGES
-----------------------
   0 C :   -0.169164
   1 C :   -0.108991
   2 C :   -0.138165
   3 C :   -0.123969
   4 C :    0.168031
   5 C :    0.029106
   6 H :    0.105019
   7 H :    0.114978
   8 H :    0.118016
   9 H :    0.109766
  10 N :   -0.479572
  11 B :    0.029523
  12 H :   -0.023419
  13 H :    0.047231
  14 H :   -0.002943
  15 C :   -0.205105
  16 H :    0.127314
  17 H :    0.095971
  18 H :    0.138950
  19 C :   -0.202993
  20 H :    0.104915
  21 H :    0.123250
  22 H :    0.138457
  23 B :    0.019702
  24 H :    0.006950
  25 C :    0.015888
  26 C :    0.190307
  27 C :   -0.158416
  28 C :   -0.133821
  29 C :   -0.115342
  30 H :    0.107188
  31 C :   -0.133459
  32 H :    0.109749
  33 H :    0.114530
  34 H :    0.118726
  35 N :   -0.455881
  36 C :   -0.206311
  37 H :    0.127871
  38 H :    0.096922
  39 H :    0.137972
  40 C :   -0.193557
  41 H :    0.105098
  42 H :    0.129127
  43 H :    0.120552
Sum of atomic charges:    0.0000000

LOEWDIN ATOMIC CHARGES
----------------------
   0 C :   -0.067908
   1 C :   -0.091219
   2 C :   -0.075868
   3 C :   -0.102837
   4 C :    0.033497
   5 C :   -0.045948
   6 H :    0.073876
   7 H :    0.077420
   8 H :    0.078159
   9 H :    0.077608
  10 N :   -0.146801
  11 B :   -0.198815
  12 H :    0.018663
  13 H :    0.181006
  14 H :    0.159930
  15 C :   -0.127754
  16 H :    0.075414
  17 H :    0.049963
  18 H :    0.081008
  19 C :   -0.120484
  20 H :    0.055192
  21 H :    0.072082
  22 H :    0.082817
  23 B :   -0.171358
  24 H :    0.032887
  25 C :   -0.067307
  26 C :    0.048185
  27 C :   -0.055098
  28 C :   -0.113008
  29 C :   -0.101273
  30 H :    0.076503
  31 C :   -0.066107
  32 H :    0.077591
  33 H :    0.077158
  34 H :    0.078571
  35 N :   -0.128735
  36 C :   -0.127123
  37 H :    0.076083
  38 H :    0.050397
  39 H :    0.080620
  40 C :   -0.114325
  41 H :    0.055541
  42 H :    0.074291
  43 H :    0.077505

  Mayer bond orders larger than 0.100000
B(  0-C ,  1-C ) :   1.4316 B(  0-C ,  5-C ) :   1.4178 B(  0-C ,  6-H ) :   0.9468
B(  1-C ,  2-C ) :   1.4576 B(  1-C ,  7-H ) :   0.9495 B(  2-C ,  3-C ) :   1.4291
B(  2-C ,  8-H ) :   0.9473 B(  3-C ,  4-C ) :   1.4135 B(  3-C ,  9-H ) :   0.9413
B(  4-C ,  5-C ) :   1.4151 B(  4-C , 10-N ) :   0.9568 B(  5-C , 11-B ) :   0.9953
B( 10-N , 15-C ) :   0.9752 B( 10-N , 19-C ) :   0.9553 B( 11-B , 12-H ) :   0.9512
B( 11-B , 13-H ) :   0.4894 B( 11-B , 14-H ) :   0.4944 B( 11-B , 23-B ) :   0.4981
B( 13-H , 23-B ) :   0.4481 B( 14-H , 23-B ) :   0.4429 B( 15-C , 16-H ) :   0.9624
B( 15-C , 17-H ) :   0.9432 B( 15-C , 18-H ) :   0.9624 B( 19-C , 20-H ) :   0.9490
B( 19-C , 21-H ) :   0.9619 B( 19-C , 22-H ) :   0.9548 B( 23-B , 24-H ) :   0.9681
B( 23-B , 25-C ) :   1.0133 B( 25-C , 26-C ) :   1.3736 B( 25-C , 27-C ) :   1.4144
B( 26-C , 28-C ) :   1.4036 B( 26-C , 35-N ) :   0.9912 B( 27-C , 29-C ) :   1.4334
B( 27-C , 30-H ) :   0.9415 B( 28-C , 31-C ) :   1.4311 B( 28-C , 32-H ) :   0.9407
B( 29-C , 31-C ) :   1.4514 B( 29-C , 33-H ) :   0.9495 B( 31-C , 34-H ) :   0.9471
B( 35-N , 36-C ) :   0.9775 B( 35-N , 40-C ) :   0.9577 B( 36-C , 37-H ) :   0.9619
B( 36-C , 38-H ) :   0.9413 B( 36-C , 39-H ) :   0.9610 B( 40-C , 41-H ) :   0.9486
B( 40-C , 42-H ) :   0.9607 B( 40-C , 43-H ) :   0.9602

Dispersion correction           -0.019833979
FINAL SINGLE POINT ENERGY      -783.147850859553

DIPOLE MOMENT
-------------

Method             : SCF
Type of density    : Electron Density
Multiplicity       :   1
Irrep              :   0
Energy             :  -783.1280168804555615 Eh
Basis              : AO
                                X                 Y                 Z
Electronic contribution:      1.621339847      -2.313245915       2.542616167
Nuclear contribution   :     -1.695700802       2.370530807      -2.706443961
                        -----------------------------------------
Total Dipole Moment    :     -0.074360955       0.057284892      -0.163827793
                        -----------------------------------------
Magnitude (a.u.)       :      0.188813814
Magnitude (Debye)      :      0.479926575

VIBRATIONAL FREQUENCIES
-----------------------

Scaling factor for frequencies =  1.000000000  (already applied!)

     0:       0.00 cm**-1
     1:       0.00 cm**-1
     2:       0.00 cm**-1
     3:       0.00 cm**-1
     4:       0.00 cm**-1
     5:       0.00 cm**-1
     6:       8.97 cm**-1
     7:      30.76 cm**-1
     8:      37.22 cm**-1
     9:      50.94 cm**-1
    10:      70.21 cm**-1
    11:      75.29 cm**-1
    12:     100.54 cm**-1
    13:     121.49 cm**-1
    14:     130.53 cm**-1
    15:     156.29 cm**-1
    16:     187.62 cm**-1
    17:     195.93 cm**-1
    18:     218.05 cm**-1
    19:     250.63 cm**-1
    20:     257.62 cm**-1
    21:     286.07 cm**-1
    22:     290.32 cm**-1
    23:     309.16 cm**-1
    24:     316.30 cm**-1
    25:     338.67 cm**-1
    26:     361.46 cm**-1
    27:     376.74 cm**-1
    28:     385.88 cm**-1
    29:     461.09 cm**-1
    30:     464.44 cm**-1
    31:     487.21 cm**-1
    32:     506.28 cm**-1
    33:     526.76 cm**-1
    34:     549.00 cm**-1
    35:     574.28 cm**-1
    36:     577.35 cm**-1
    37:     588.53 cm**-1
    38:     617.46 cm**-1
    39:     715.35 cm**-1
    40:     733.80 cm**-1
    41:     743.15 cm**-1
    42:     761.08 cm**-1
    43:     772.64 cm**-1
    44:     792.08 cm**-1
    45:     800.70 cm**-1
    46:     813.48 cm**-1
    47:     824.79 cm**-1
    48:     851.68 cm**-1
    49:     885.71 cm**-1
    50:     899.77 cm**-1
    51:     907.76 cm**-1
    52:     944.21 cm**-1
    53:     975.44 cm**-1
    54:     979.81 cm**-1
    55:     995.31 cm**-1
    56:     998.35 cm**-1
    57:    1011.45 cm**-1
    58:    1011.92 cm**-1
    59:    1055.86 cm**-1
    60:    1069.24 cm**-1
    61:    1084.54 cm**-1
    62:    1088.40 cm**-1
    63:    1089.11 cm**-1
    64:    1093.27 cm**-1
    65:    1096.98 cm**-1
    66:    1128.43 cm**-1
    67:    1129.09 cm**-1
    68:    1138.82 cm**-1
    69:    1150.83 cm**-1
    70:    1180.84 cm**-1
    71:    1189.64 cm**-1
    72:    1192.92 cm**-1
    73:    1195.50 cm**-1
    74:    1200.36 cm**-1
    75:    1201.17 cm**-1
    76:    1232.19 cm**-1
    77:    1250.82 cm**-1
    78:    1270.50 cm**-1
    79:    1277.37 cm**-1
    80:    1316.38 cm**-1
    81:    1320.58 cm**-1
    82:    1336.67 cm**-1
    83:    1342.03 cm**-1
    84:    1375.84 cm**-1
    85:    1389.96 cm**-1
    86:    1456.67 cm**-1
    87:    1459.52 cm**-1
    88:    1482.50 cm**-1
    89:    1485.42 cm**-1
    90:    1492.87 cm**-1
    91:    1496.76 cm**-1
    92:    1501.78 cm**-1
    93:    1502.72 cm**-1
    94:    1509.62 cm**-1
    95:    1510.99 cm**-1
    96:    1515.99 cm**-1
    97:    1519.57 cm**-1
    98:    1536.87 cm**-1
    99:    1537.97 cm**-1
   100:    1552.72 cm**-1
   101:    1553.78 cm**-1
   102:    1656.98 cm**-1
   103:    1662.27 cm**-1
   104:    1668.07 cm**-1
   105:    1692.19 cm**-1
   106:    1695.47 cm**-1
   107:    1814.36 cm**-1
   108:    2039.83 cm**-1
   109:    2175.36 cm**-1
   110:    2620.88 cm**-1
   111:    2678.89 cm**-1
   112:    2985.49 cm**-1
   113:    2989.54 cm**-1
   114:    2995.58 cm**-1
   115:    2999.77 cm**-1
   116:    3107.97 cm**-1
   117:    3109.01 cm**-1
   118:    3110.91 cm**-1
   119:    3113.05 cm**-1
   120:    3167.96 cm**-1
   121:    3169.15 cm**-1
   122:    3172.71 cm**-1
   123:    3186.31 cm**-1
   124:    3192.58 cm**-1
   125:    3200.97 cm**-1
   126:    3211.77 cm**-1
   127:    3212.15 cm**-1
   128:    3228.54 cm**-1
   129:    3232.15 cm**-1
   130:    3237.65 cm**-1
   131:    3241.57 cm**-1

IR SPECTRUM
-----------

 Mode   freq       eps      Int      T**2         TX        TY        TZ
       cm**-1   L/(mol*cm) km/mol    a.u.
----------------------------------------------------------------------------
  6:      8.97   0.000038    0.19  0.001308  ( 0.020742 -0.020774  0.021134)
  7:     30.76   0.000018    0.09  0.000187  ( 0.007213  0.005406 -0.010266)
  8:     37.22   0.000033    0.17  0.000280  ( 0.008194 -0.009265  0.011271)
  9:     50.94   0.000145    0.73  0.000889  ( 0.027854  0.010572 -0.000982)
 10:     70.21   0.000301    1.52  0.001337  (-0.032887 -0.015898 -0.001706)
 11:     75.29   0.000126    0.64  0.000522  ( 0.009315  0.003533 -0.020560)
 12:    100.54   0.000129    0.65  0.000400  ( 0.011661 -0.001845 -0.016151)
 13:    121.49   0.000115    0.58  0.000296  ( 0.008187 -0.007727  0.013028)
 14:    130.53   0.000152    0.77  0.000364  (-0.006392 -0.017981 -0.000210)
 15:    156.29   0.000098    0.50  0.000197  (-0.012018 -0.007187 -0.000689)
 16:    187.62   0.000070    0.35  0.000117  ( 0.004714  0.009646 -0.001231)
 17:    195.93   0.000052    0.26  0.000083  ( 0.002262  0.000739  0.008787)
 18:    218.05   0.000391    1.98  0.000560  (-0.003061 -0.018425  0.014516)
 19:    250.63   0.000601    3.04  0.000748  ( 0.004252 -0.022495  0.014964)
 20:    257.62   0.000216    1.09  0.000261  ( 0.009431  0.013111  0.000745)
 21:    286.07   0.000022    0.11  0.000024  (-0.004825  0.000602 -0.000532)
 22:    290.32   0.000486    2.45  0.000522  ( 0.016373  0.015655  0.002985)
 23:    309.16   0.000162    0.82  0.000163  ( 0.004234  0.004682  0.011109)
 24:    316.30   0.000218    1.10  0.000216  ( 0.008273  0.012128  0.000055)
 25:    338.67   0.000089    0.45  0.000082  ( 0.002046  0.008809 -0.000388)
 26:    361.46   0.000417    2.11  0.000360  (-0.016111 -0.007472  0.006657)
 27:    376.74   0.000256    1.29  0.000212  (-0.005334 -0.012673 -0.004769)
 28:    385.88   0.001934    9.78  0.001564  (-0.013498 -0.027854 -0.024622)
 29:    461.09   0.000446    2.25  0.000302  (-0.012062 -0.004396 -0.011711)
 30:    464.44   0.002037   10.29  0.001368  ( 0.011477  0.035148  0.001145)
 31:    487.21   0.003089   15.61  0.001979  ( 0.028583  0.029001  0.017906)
 32:    506.28   0.001107    5.59  0.000682  (-0.012707  0.006881 -0.021758)
 33:    526.76   0.002513   12.70  0.001489  ( 0.013573  0.032584  0.015592)
 34:    549.00   0.000270    1.37  0.000154  (-0.005334 -0.002424 -0.010922)
 35:    574.28   0.000777    3.93  0.000422  (-0.013863  0.013841 -0.006219)
 36:    577.35   0.000682    3.45  0.000369  (-0.002272  0.008628 -0.017007)
 37:    588.53   0.001253    6.33  0.000664  (-0.011325 -0.010364 -0.020707)
 38:    617.46   0.000179    0.90  0.000090  (-0.004229 -0.004741 -0.007063)
 39:    715.35   0.000739    3.74  0.000322  ( 0.015416 -0.006427  0.006600)
 40:    733.80   0.004198   21.22  0.001785  ( 0.017201 -0.000204  0.038593)
 41:    743.15   0.002098   10.60  0.000881  ( 0.017241 -0.000904  0.024146)
 42:    761.08   0.004715   23.83  0.001933  ( 0.023259 -0.009548  0.036069)
 43:    772.64   0.001002    5.06  0.000405  (-0.018276  0.007007 -0.004640)
 44:    792.08   0.005627   28.43  0.002217  (-0.016935  0.043068  0.008671)
 45:    800.70   0.004404   22.26  0.001716  (-0.002180  0.018100 -0.037202)
 46:    813.48   0.004210   21.28  0.001615  ( 0.023200  0.019345  0.026506)
 47:    824.79   0.002755   13.92  0.001042  ( 0.018608  0.023434  0.012127)
 48:    851.68   0.009428   47.64  0.003454  (-0.031410 -0.034645 -0.035603)
 49:    885.71   0.000394    1.99  0.000139  ( 0.007699  0.006123  0.006473)
 50:    899.77   0.000309    1.56  0.000107  (-0.007361  0.003058 -0.006613)
 51:    907.76   0.000774    3.91  0.000266  ( 0.002527  0.007677  0.014165)
 52:    944.21   0.001798    9.08  0.000594  ( 0.014765 -0.016024 -0.010925)
 53:    975.44   0.000109    0.55  0.000035  ( 0.001706 -0.003257  0.004616)
 54:    979.81   0.000098    0.50  0.000031  ( 0.000454 -0.005563  0.000230)
 55:    995.31   0.006170   31.18  0.001934  (-0.022293  0.022483  0.030528)
 56:    998.35   0.006596   33.33  0.002062  ( 0.020922 -0.016882 -0.036594)
 57:   1011.45   0.000016    0.08  0.000005  (-0.000835  0.001388  0.001508)
 58:   1011.92   0.000095    0.48  0.000029  (-0.001325 -0.000286 -0.005243)
 59:   1055.86   0.006585   33.28  0.001946  (-0.026868 -0.023647 -0.025792)
 60:   1069.24   0.002832   14.31  0.000827  ( 0.016497  0.012036  0.020237)
 61:   1084.54   0.006349   32.08  0.001827  ( 0.026588  0.023659  0.023667)
 62:   1088.40   0.000761    3.85  0.000218  (-0.014638 -0.000120 -0.001997)
 63:   1089.11   0.002509   12.68  0.000719  (-0.007282  0.006706 -0.024920)
 64:   1093.27   0.003822   19.31  0.001091  ( 0.005062 -0.017686 -0.027432)
 65:   1096.98   0.003471   17.54  0.000987  ( 0.015219  0.025756  0.009615)
 66:   1128.43   0.000712    3.60  0.000197  ( 0.000374 -0.009689  0.010144)
 67:   1129.09   0.000542    2.74  0.000150  ( 0.011225 -0.004859 -0.000291)
 68:   1138.82   0.007248   36.63  0.001986  (-0.043324 -0.009697  0.003876)
 69:   1150.83   0.002401   12.13  0.000651  (-0.023949 -0.005062  0.007204)
 70:   1180.84   0.003363   17.00  0.000889  ( 0.002930  0.008837 -0.028322)
 71:   1189.64   0.000390    1.97  0.000102  (-0.007811 -0.000355 -0.006419)
 72:   1192.92   0.000842    4.25  0.000220  ( 0.006028 -0.010633 -0.008412)
 73:   1195.50   0.001276    6.45  0.000333  ( 0.001647 -0.007363 -0.016618)
 74:   1200.36   0.004164   21.04  0.001083  ( 0.030348 -0.000615 -0.012695)
 75:   1201.17   0.001328    6.71  0.000345  (-0.005998  0.004626 -0.016961)
 76:   1232.19   0.021824  110.29  0.005527  (-0.045393 -0.045757 -0.037052)
 77:   1250.82   0.005826   29.44  0.001453  ( 0.022278 -0.009364  0.029487)
 78:   1270.50   0.001264    6.39  0.000310  ( 0.000950  0.000895  0.017571)
 79:   1277.37   0.003502   17.70  0.000856  (-0.002346 -0.026616  0.011901)
 80:   1316.38   0.002645   13.37  0.000627  ( 0.022277  0.011431  0.000251)
 81:   1320.58   0.002064   10.43  0.000488  (-0.020032 -0.008685 -0.003322)
 82:   1336.67   0.001111    5.61  0.000259  ( 0.002103  0.015431  0.004089)
 83:   1342.03   0.001980   10.01  0.000461  ( 0.018141  0.004172  0.010677)
 84:   1375.84   0.005867   29.65  0.001331  (-0.022546  0.017995  0.022329)
 85:   1389.96   0.010059   50.83  0.002258  ( 0.021226 -0.010398 -0.041227)
 86:   1456.67   0.000077    0.39  0.000017  ( 0.001769  0.000385 -0.003640)
 87:   1459.52   0.000267    1.35  0.000057  ( 0.004672  0.001186  0.005815)
 88:   1482.50   0.003891   19.66  0.000819  (-0.010186  0.005450  0.026184)
 89:   1485.42   0.001825    9.22  0.000383  (-0.015401  0.006824  0.009980)
 90:   1492.87   0.002069   10.45  0.000432  (-0.019577 -0.004752 -0.005157)
 91:   1496.76   0.001079    5.45  0.000225  ( 0.004059  0.014351 -0.001586)
 92:   1501.78   0.001896    9.58  0.000394  (-0.013655  0.014350 -0.001285)
 93:   1502.72   0.006639   33.55  0.001379  ( 0.027101 -0.000075 -0.025380)
 94:   1509.62   0.006852   34.63  0.001416  ( 0.009203  0.016797 -0.032396)
 95:   1510.99   0.002183   11.03  0.000451  ( 0.020864  0.003919 -0.000400)
 96:   1515.99   0.001158    5.85  0.000238  (-0.007588  0.013438  0.000468)
 97:   1519.57   0.003410   17.23  0.000700  (-0.014969  0.007161 -0.020613)
 98:   1536.87   0.003158   15.96  0.000641  (-0.015692 -0.007787 -0.018286)
 99:   1537.97   0.000168    0.85  0.000034  ( 0.004415 -0.000935 -0.003706)
100:   1552.72   0.029923  151.22  0.006014  ( 0.026971 -0.031515 -0.065524)
101:   1553.78   0.010533   53.23  0.002115  (-0.018749  0.001140 -0.041983)
102:   1656.98   0.140209  708.56  0.026406  (-0.099225 -0.070256 -0.107816)
103:   1662.27   0.009545   48.24  0.001792  (-0.028179 -0.022424 -0.022250)
104:   1668.07   0.075820  383.17  0.014185  ( 0.090512  0.038086  0.067391)
105:   1692.19   0.010270   51.90  0.001894  ( 0.025297  0.004990 -0.035059)
106:   1695.47   0.019804  100.08  0.003645  (-0.047450 -0.016981 -0.033244)
107:   1814.36   0.008064   40.75  0.001387  (-0.015608 -0.012570 -0.031391)
108:   2039.83   0.002064   10.43  0.000316  ( 0.007586 -0.012822 -0.009688)
109:   2175.36   0.008552   43.22  0.001227  ( 0.012406  0.024331  0.021931)
110:   2620.88   0.017424   88.06  0.002075  ( 0.012330  0.031014 -0.030997)
111:   2678.89   0.010496   53.04  0.001223  (-0.012483 -0.025097  0.020904)
112:   2985.49   0.015047   76.04  0.001573  (-0.010650 -0.017841 -0.033781)
113:   2989.54   0.013573   68.59  0.001417  ( 0.003065 -0.036092 -0.010237)
114:   2995.58   0.022825  115.35  0.002378  ( 0.023462 -0.035028 -0.024502)
115:   2999.77   0.019840  100.26  0.002064  ( 0.006227 -0.013790 -0.042837)
116:   3107.97   0.007675   38.79  0.000771  ( 0.005934  0.020346 -0.017930)
117:   3109.01   0.007773   39.28  0.000780  ( 0.024291 -0.004843  0.012910)
118:   3110.91   0.005199   26.27  0.000521  (-0.020284 -0.010420 -0.001215)
119:   3113.05   0.005982   30.23  0.000600  (-0.019343 -0.014695  0.003091)
120:   3167.96   0.003437   17.37  0.000339  ( 0.016870 -0.004679 -0.005665)
121:   3169.15   0.002970   15.01  0.000292  (-0.010167 -0.004402  0.013026)
122:   3172.71   0.003970   20.06  0.000391  (-0.014644  0.012608  0.004138)
123:   3186.31   0.004912   24.82  0.000481  (-0.000414  0.000503 -0.021923)
124:   3192.58   0.002514   12.70  0.000246  (-0.003052  0.014527  0.005037)
125:   3200.97   0.001548    7.82  0.000151  ( 0.002332  0.004775  0.011076)
126:   3211.77   0.001161    5.87  0.000113  (-0.004966 -0.009234 -0.001695)
127:   3212.15   0.002060   10.41  0.000200  ( 0.009899  0.007704  0.006542)
128:   3228.54   0.004923   24.88  0.000476  ( 0.017352 -0.012086 -0.005357)
129:   3232.15   0.005265   26.61  0.000508  (-0.011969 -0.003411  0.018801)
130:   3237.65   0.004576   23.13  0.000441  (-0.016433 -0.012596 -0.003515)
131:   3241.57   0.003411   17.24  0.000328  ( 0.013305  0.009854  0.007368)

--------------------------
THERMOCHEMISTRY AT 298.15K
--------------------------

Temperature         ...   298.15 K
Pressure            ...     1.00 atm
Total Mass          ...   266.00 AMU
Quasi RRHO          ...     True
Cut-Off Frequency   ...     1.00 cm^-1

Throughout the following assumptions are being made:
  (1) The electronic state is orbitally nondegenerate
  (2) There are no thermally accessible electronically excited states
  (3) Hindered rotations indicated by low frequency modes are not
      treated as such but are treated as vibrations and this may
      cause some error
  (4) All equations used are the standard statistical mechanics
      equations for an ideal gas
  (5) All vibrations are strictly harmonic

freq.       8.97  E(vib)   ...       0.58
freq.      30.76  E(vib)   ...       0.55
freq.      37.22  E(vib)   ...       0.54
freq.      50.94  E(vib)   ...       0.52
freq.      70.21  E(vib)   ...       0.50
freq.      75.29  E(vib)   ...       0.49
freq.     100.54  E(vib)   ...       0.46
freq.     121.49  E(vib)   ...       0.44
freq.     130.53  E(vib)   ...       0.43
freq.     156.29  E(vib)   ...       0.40
freq.     187.62  E(vib)   ...       0.36
freq.     195.93  E(vib)   ...       0.36
freq.     218.05  E(vib)   ...       0.33
freq.     250.63  E(vib)   ...       0.30
freq.     257.62  E(vib)   ...       0.30
freq.     286.07  E(vib)   ...       0.27
freq.     290.32  E(vib)   ...       0.27
freq.     309.16  E(vib)   ...       0.26
freq.     316.30  E(vib)   ...       0.25
freq.     338.67  E(vib)   ...       0.23
freq.     361.46  E(vib)   ...       0.22
freq.     376.74  E(vib)   ...       0.21
freq.     385.88  E(vib)   ...       0.20
freq.     461.09  E(vib)   ...       0.16
freq.     464.44  E(vib)   ...       0.16
freq.     487.21  E(vib)   ...       0.15
freq.     506.28  E(vib)   ...       0.14
freq.     526.76  E(vib)   ...       0.13
freq.     549.00  E(vib)   ...       0.12
freq.     574.28  E(vib)   ...       0.11
freq.     577.35  E(vib)   ...       0.11
freq.     588.53  E(vib)   ...       0.10
freq.     617.46  E(vib)   ...       0.09
freq.     715.35  E(vib)   ...       0.07
freq.     733.80  E(vib)   ...       0.06
freq.     743.15  E(vib)   ...       0.06
freq.     761.08  E(vib)   ...       0.06
freq.     772.64  E(vib)   ...       0.05
freq.     792.08  E(vib)   ...       0.05
freq.     800.70  E(vib)   ...       0.05
freq.     813.48  E(vib)   ...       0.05
freq.     824.79  E(vib)   ...       0.04
freq.     851.68  E(vib)   ...       0.04
freq.     885.71  E(vib)   ...       0.04
freq.     899.77  E(vib)   ...       0.03
freq.     907.76  E(vib)   ...       0.03
freq.     944.21  E(vib)   ...       0.03
freq.     975.44  E(vib)   ...       0.03
freq.     979.81  E(vib)   ...       0.02
freq.     995.31  E(vib)   ...       0.02
freq.     998.35  E(vib)   ...       0.02
freq.    1011.45  E(vib)   ...       0.02
freq.    1011.92  E(vib)   ...       0.02
freq.    1055.86  E(vib)   ...       0.02
freq.    1069.24  E(vib)   ...       0.02
freq.    1084.54  E(vib)   ...       0.02
freq.    1088.40  E(vib)   ...       0.02
freq.    1089.11  E(vib)   ...       0.02
freq.    1093.27  E(vib)   ...       0.02
freq.    1096.98  E(vib)   ...       0.02
freq.    1128.43  E(vib)   ...       0.01
freq.    1129.09  E(vib)   ...       0.01
freq.    1138.82  E(vib)   ...       0.01
freq.    1150.83  E(vib)   ...       0.01
freq.    1180.84  E(vib)   ...       0.01
freq.    1189.64  E(vib)   ...       0.01
freq.    1192.92  E(vib)   ...       0.01
freq.    1195.50  E(vib)   ...       0.01
freq.    1200.36  E(vib)   ...       0.01
freq.    1201.17  E(vib)   ...       0.01
freq.    1232.19  E(vib)   ...       0.01
freq.    1250.82  E(vib)   ...       0.01
freq.    1270.50  E(vib)   ...       0.01
freq.    1277.37  E(vib)   ...       0.01
freq.    1316.38  E(vib)   ...       0.01
freq.    1320.58  E(vib)   ...       0.01
freq.    1336.67  E(vib)   ...       0.01
freq.    1342.03  E(vib)   ...       0.01
freq.    1375.84  E(vib)   ...       0.01
freq.    1389.96  E(vib)   ...       0.00
freq.    1456.67  E(vib)   ...       0.00
freq.    1459.52  E(vib)   ...       0.00
freq.    1482.50  E(vib)   ...       0.00
freq.    1485.42  E(vib)   ...       0.00
freq.    1492.87  E(vib)   ...       0.00
freq.    1496.76  E(vib)   ...       0.00
freq.    1501.78  E(vib)   ...       0.00
freq.    1502.72  E(vib)   ...       0.00
freq.    1509.62  E(vib)   ...       0.00
freq.    1510.99  E(vib)   ...       0.00
freq.    1515.99  E(vib)   ...       0.00
freq.    1519.57  E(vib)   ...       0.00
freq.    1536.87  E(vib)   ...       0.00
freq.    1537.97  E(vib)   ...       0.00
freq.    1552.72  E(vib)   ...       0.00
freq.    1553.78  E(vib)   ...       0.00
freq.    1656.98  E(vib)   ...       0.00
freq.    1662.27  E(vib)   ...       0.00
freq.    1668.07  E(vib)   ...       0.00
freq.    1692.19  E(vib)   ...       0.00
freq.    1695.47  E(vib)   ...       0.00
freq.    1814.36  E(vib)   ...       0.00
freq.    2039.83  E(vib)   ...       0.00
freq.    2175.36  E(vib)   ...       0.00
freq.    2620.88  E(vib)   ...       0.00
freq.    2678.89  E(vib)   ...       0.00
freq.    2985.49  E(vib)   ...       0.00
freq.    2989.54  E(vib)   ...       0.00
freq.    2995.58  E(vib)   ...       0.00
freq.    2999.77  E(vib)   ...       0.00
freq.    3107.97  E(vib)   ...       0.00
freq.    3109.01  E(vib)   ...       0.00
freq.    3110.91  E(vib)   ...       0.00
freq.    3113.05  E(vib)   ...       0.00
freq.    3167.96  E(vib)   ...       0.00
freq.    3169.15  E(vib)   ...       0.00
freq.    3172.71  E(vib)   ...       0.00
freq.    3186.31  E(vib)   ...       0.00
freq.    3192.58  E(vib)   ...       0.00
freq.    3200.97  E(vib)   ...       0.00
freq.    3211.77  E(vib)   ...       0.00
freq.    3212.15  E(vib)   ...       0.00
freq.    3228.54  E(vib)   ...       0.00
freq.    3232.15  E(vib)   ...       0.00
freq.    3237.65  E(vib)   ...       0.00
freq.    3241.57  E(vib)   ...       0.00

------------
INNER ENERGY
------------

The inner energy is: U= E(el) + E(ZPE) + E(vib) + E(rot) + E(trans)
    E(el)   - is the total energy from the electronic structure calculation
              = E(kin-el) + E(nuc-el) + E(el-el) + E(nuc-nuc)
    E(ZPE)  - the the zero temperature vibrational energy from the frequency calculation
    E(vib)  - the the finite temperature correction to E(ZPE) due to population
              of excited vibrational states
    E(rot)  - is the rotational thermal energy
    E(trans)- is the translational thermal energy

Summary of contributions to the inner energy U:
Electronic energy                ...   -783.14785086 Eh

Rotational constants in cm-1:     0.018408     0.005598     0.004791

                             ****ORCA TERMINATED NORMALLY****
TOTAL RUN TIME: 0 days 0 hours 47 minutes 29 seconds 833 msec
