                         Program Version 6.1.0  -  RELEASE   -
|  1> # Automatically generated ORCA input
|  2>
|  3> # Number of cores
|  4> %pal nprocs 62 end
|  5> # RAM per core
|  6> %maxcore 4129
|  7>
|  8> ! wB97X-D3
|  9> ! 6-31G**
| 10> ! Opt
| 11> ! NoSym
| 12>
| 13> %geom
| 14>     Constraints
| 15>         {B 11 10 C}
| 16>         {B 11 19 C}
| 17>         {B 12 10 C}
| 18>         {B 12 19 C}
| 19>         {B 19 10 C}
| 20>         {B 11 12 C}
| 21>         {A 10 11 19 C}
| 22>         {A 10 12 19 C}
| 23>     end
| 24> end
| 25> %Output
| 26>   JSONPropFile True
| 27> End
| 28>
| 29>
| 30> *xyz 0 1
| 31> C        -1.89914000     -2.30666000      0.19371000
| 32> C        -0.57022000     -1.91307000      0.04808000
| 33> C        -0.16344000     -0.59139000      0.24530000
| 34> C        -1.14925000      0.35810000      0.58873000
| 35> C        -2.48644000     -0.05537000      0.74198000
| 36> C        -2.85343000     -1.36404000      0.54978000
| 37> H        -2.17912000     -3.34493000      0.04544000
| 38> H         0.17903000     -2.66443000     -0.18723000
| 39> H        -3.27123000      0.64445000      0.99437000
| 40> H        -3.88773000     -1.66112000      0.66800000
| 41> B         1.37187000     -0.17509000      0.17727000
| 42> H         2.01474000     -1.23252000     -0.14771000
| 43> C         1.97914000      0.27916000      1.68539000
| 44> C         1.28286000      0.12908000      2.87905000
| 45> C         1.53566000      1.12983000      3.83227000
| 46> H         0.60253000     -0.72219000      3.09559000
| 47> C         2.42714000      2.06488000      3.35972000
| 48> H         1.08801000      1.16890000      4.81690000
| 49> H         2.79238000      2.93939000      3.88215000
| 50> B         2.67390000     -1.19925000      1.06200000
| 51> O         4.04852000     -1.10868000      0.83061000
| 52> O         2.32721000     -2.38892000      1.71466000
| 53> C         4.60075000     -2.38706000      1.18495000
| 54> C         3.55987000     -2.91706000      2.22921000
| 55> C         4.65022000     -3.24246000     -0.08318000
| 56> H         5.21211000     -2.70261000     -0.84930000
| 57> H         5.14165000     -4.20299000      0.09610000
| 58> H         3.64457000     -3.43341000     -0.46870000
| 59> C         6.00269000     -2.17511000      1.73723000
| 60> H         6.66426000     -1.81825000      0.94362000
| 61> H         6.00290000     -1.43267000      2.53667000
| 62> H         6.41074000     -3.11407000      2.12529000
| 63> C         3.77786000     -2.32926000      3.62679000
| 64> H         2.90083000     -2.55041000      4.24077000
| 65> H         4.65844000     -2.76071000      4.11111000
| 66> H         3.89960000     -1.24295000      3.58484000
| 67> C         3.44517000     -4.43206000      2.30445000
| 68> H         4.40309000     -4.87749000      2.59144000
| 69> H         2.70077000     -4.71002000      3.05495000
| 70> H         3.13432000     -4.85303000      1.34698000
| 71> N        -0.92478000      1.81128000      0.72715000
| 72> S         2.95015000      1.72588000      1.77750000
| 73> H         1.77890000      0.59898000     -0.64393000
| 74> C        -1.60458000      2.54901000      1.86020000
| 75> C        -0.70828000      2.61776000     -0.54456000
| 76> C        -2.97195000      3.17813000      1.40377000
| 77> C        -0.68114000      3.68791000      2.38395000
| 78> C        -1.87789000      1.69493000      3.14131000
| 79> C        -3.09421000      3.36292000     -0.11589000
| 80> H        -3.10505000      4.15437000      1.92112000
| 81> H        -3.85931000      2.58773000      1.71600000
| 82> C        -1.75457000      3.78917000     -0.67911000
| 83> C        -0.87849000      1.74270000     -1.82762000
| 84> C         0.69100000      3.28725000     -0.62471000
| 85> H        -1.84721000      4.11223000     -1.73951000
| 86> H        -1.46586000      4.71269000     -0.14428000
| 87> H        -3.89489000      4.10413000     -0.32673000
| 88> H        -3.38893000      2.41181000     -0.60419000
| 89> H        -0.75771000      2.35574000     -2.74705000
| 90> H        -1.88100000      1.26988000     -1.87340000
| 91> H        -0.11857000      0.94572000     -1.90257000
| 92> H         0.77547000      3.88087000     -1.56114000
| 93> H         1.53112000      2.59576000     -0.63316000
| 94> H         0.89480000      3.98211000      0.20420000
| 95> H        -0.50219000      4.51192000      1.68604000
| 96> H         0.29566000      3.28706000      2.68808000
| 97> H        -1.12868000      4.18853000      3.27054000
| 98> H        -2.60371000      0.87460000      3.02774000
| 99> H        -2.31383000      2.32982000      3.94361000
|100> H        -0.96310000      1.25097000      3.54224000
|101> *
|102>
|103>
|104>                          ****END OF INPUT****
 Total Charge           Charge          ....    0
 Multiplicity           Mult            ....    1
 Number of Electrons    NEL             ....  238
Dispersion correction           -0.051811124
FINAL SINGLE POINT ENERGY     -1629.025514864469
Dispersion correction             ... done (  0.1 sec)
Dispersion correction           -0.050852494
FINAL SINGLE POINT ENERGY     -1629.037501937782
Dispersion correction             ... done (  0.1 sec)
Dispersion correction           -0.051993749
FINAL SINGLE POINT ENERGY     -1629.040719178689
Dispersion correction             ... done (  0.1 sec)
FINAL SINGLE POINT ENERGY     -1629.044128373812
FINAL SINGLE POINT ENERGY     -1629.043236015527
FINAL SINGLE POINT ENERGY     -1629.045338567812
FINAL SINGLE POINT ENERGY     -1629.045264407709
FINAL SINGLE POINT ENERGY     -1629.045847075320
FINAL SINGLE POINT ENERGY     -1629.045940226154
FINAL SINGLE POINT ENERGY     -1629.046008536514
FINAL SINGLE POINT ENERGY     -1629.046371733296
FINAL SINGLE POINT ENERGY     -1629.046624865129
FINAL SINGLE POINT ENERGY     -1629.046741401509
FINAL SINGLE POINT ENERGY     -1629.046871095289
FINAL SINGLE POINT ENERGY     -1629.047119786374
FINAL SINGLE POINT ENERGY     -1629.047184521204
FINAL SINGLE POINT ENERGY     -1629.047205315537
Dispersion correction             ... done (  0.1 sec)
Dispersion correction           -0.050415827
FINAL SINGLE POINT ENERGY     -1629.047219849970
Dispersion correction             ... done (  0.0 sec)
Dispersion correction           -0.050418065
FINAL SINGLE POINT ENERGY     -1629.047227237762
Dispersion correction             ... done (  0.1 sec)
                    ***********************HURRAY********************

CARTESIAN COORDINATES (ANGSTROEM)
---------------------------------
  C     -1.906346   -2.209901    0.819842
  C     -0.591337   -1.763624    0.862024
  C     -0.258556   -0.401953    0.751656
  C     -1.306514    0.519516    0.554641
  C     -2.630326    0.057596    0.527778
  C     -2.937466   -1.288947    0.663605
  H     -2.124641   -3.270364    0.912636
  H      0.205360   -2.491288    0.999559
  H     -3.430162    0.781385    0.395411
  H     -3.973261   -1.616545    0.639502
  B      1.256566    0.077029    0.902098
  H      1.981988   -0.776856    0.284281
  C      1.816815    0.080151    2.494474
  C      1.164850   -0.496044    3.580129
  C      1.403504    0.145206    4.810519
  H      0.542659   -1.375973    3.461110
  C      2.237019    1.229109    4.660336
  H      0.985718   -0.169346    5.758715
  H      2.576524    1.903211    5.436801
  B      2.628651   -1.075652    1.463918
  O      3.991741   -0.797616    1.314155
  O      2.405803   -2.437910    1.721142
  C      4.663485   -2.066990    1.260969
  C      3.689123   -2.987693    2.068585
  C      4.776496   -2.474143   -0.209529
  H      5.273456   -1.669801   -0.757848
  H      5.361051   -3.390529   -0.333678
  H      3.788595   -2.628656   -0.653510
  C      6.045666   -1.904699    1.877029
  H      6.654889   -1.249334    1.249004
  H      5.984137   -1.457221    2.870639
  H      6.554052   -2.871567    1.953827
  C      3.865584   -2.848741    3.582762
  H      3.016634   -3.325361    4.080737
  H      4.783880   -3.331291    3.929912
  H      3.889477   -1.797411    3.885606
  C      3.707568   -4.454114    1.663814
  H      4.702471   -4.886749    1.812104
  H      2.998444   -5.016489    2.277324
  H      3.422701   -4.579031    0.617702
  N     -1.030195    1.917382    0.393011
  S      2.722507    1.461150    3.050098
  H      1.635208    1.090269    0.397162
  C     -1.375692    2.827371    1.509247
  C     -1.015746    2.478667   -0.990740
  C     -2.755477    3.517990    1.289071
  C     -0.267878    3.889281    1.679945
  C     -1.422243    2.063953    2.839982
  C     -3.139777    3.633944   -0.192172
  H     -2.726670    4.513985    1.748394
  H     -3.534273    2.960691    1.823369
  C     -1.904816    3.748389   -1.075296
  C     -1.551612    1.466172   -2.019008
  C      0.418060    2.834959   -1.426102
  H     -2.192322    3.897427   -2.122218
  H     -1.332839    4.640158   -0.795591
  H     -3.804775    4.490142   -0.347622
  H     -3.712077    2.750089   -0.499934
  H     -1.425482    1.887075   -3.021286
  H     -2.612579    1.244256   -1.876141
  H     -1.005115    0.520659   -1.978600
  H      0.403282    3.359045   -2.389397
  H      1.022611    1.931523   -1.539907
  H      0.914215    3.477414   -0.695987
  H     -0.199963    4.580880    0.838833
  H      0.701307    3.395166    1.794641
  H     -0.461656    4.489061    2.575936
  H     -2.181687    1.279500    2.846215
  H     -1.660718    2.771649    3.640492
  H     -0.455895    1.606759    3.068706

 Multiplicity           Mult            ....    1
 Number of Electrons    NEL             ....  238
 Basis Dimension        Dim             ....  633

ORBITAL ENERGIES
----------------

  NO   OCC          E(Eh)            E(eV)
   0   2.0000     -88.995300     -2421.6852
   1   2.0000     -19.236542      -523.4529
   2   2.0000     -19.233294      -523.3645
   3   2.0000     -14.398305      -391.7978
   4   2.0000     -10.344428      -281.4862
   5   2.0000     -10.342855      -281.4434
   6   2.0000     -10.342263      -281.4273
   7   2.0000     -10.319722      -280.8139
   8   2.0000     -10.316352      -280.7222
   9   2.0000     -10.310574      -280.5650
  10   2.0000     -10.309620      -280.5390
  11   2.0000     -10.308007      -280.4951
  12   2.0000     -10.299272      -280.2574
  13   2.0000     -10.275859      -279.6203
  14   2.0000     -10.274268      -279.5770
  15   2.0000     -10.274079      -279.5719
  16   2.0000     -10.273860      -279.5659
  17   2.0000     -10.271710      -279.5074
  18   2.0000     -10.271164      -279.4926
  19   2.0000     -10.268830      -279.4291
  20   2.0000     -10.268471      -279.4193
  21   2.0000     -10.266978      -279.3787
  22   2.0000     -10.264744      -279.3179
  23   2.0000     -10.263295      -279.2785
  24   2.0000     -10.256533      -279.0944
  25   2.0000     -10.256529      -279.0943
  26   2.0000     -10.255265      -279.0600
  27   2.0000     -10.254714      -279.0450
  28   2.0000     -10.248198      -278.8676
  29   2.0000      -8.090679      -220.1586
  30   2.0000      -6.907107      -187.9519
  31   2.0000      -6.822141      -185.6399
  32   2.0000      -6.044594      -164.4818
  33   2.0000      -6.040061      -164.3584
  34   2.0000      -6.038162      -164.3067
  35   2.0000      -1.168283       -31.7906
  36   2.0000      -1.095950       -29.8223
  37   2.0000      -1.028188       -27.9784
  38   2.0000      -1.017698       -27.6930
  39   2.0000      -0.948548       -25.8113
  40   2.0000      -0.919752       -25.0277
  41   2.0000      -0.906825       -24.6760
  42   2.0000      -0.896547       -24.3963
  43   2.0000      -0.868465       -23.6321
  44   2.0000      -0.865944       -23.5635
  45   2.0000      -0.861562       -23.4443
  46   2.0000      -0.847363       -23.0579
  47   2.0000      -0.838423       -22.8146
  48   2.0000      -0.818265       -22.2661
  49   2.0000      -0.811881       -22.0924
  50   2.0000      -0.790432       -21.5087
  51   2.0000      -0.785593       -21.3771
  52   2.0000      -0.775028       -21.0896
  53   2.0000      -0.772973       -21.0337
  54   2.0000      -0.749539       -20.3960
  55   2.0000      -0.714246       -19.4356
  56   2.0000      -0.707072       -19.2404
  57   2.0000      -0.689064       -18.7504
  58   2.0000      -0.682017       -18.5586
  59   2.0000      -0.677656       -18.4399
  60   2.0000      -0.665264       -18.1027
  61   2.0000      -0.653212       -17.7748
  62   2.0000      -0.646136       -17.5823
  63   2.0000      -0.629305       -17.1243
  64   2.0000      -0.618223       -16.8227
  65   2.0000      -0.602950       -16.4071
  66   2.0000      -0.582321       -15.8458
  67   2.0000      -0.571028       -15.5385
  68   2.0000      -0.565937       -15.3999
  69   2.0000      -0.565088       -15.3768
  70   2.0000      -0.558570       -15.1994
  71   2.0000      -0.554226       -15.0813
  72   2.0000      -0.547306       -14.8929
  73   2.0000      -0.539006       -14.6671
  74   2.0000      -0.536087       -14.5877
  75   2.0000      -0.522827       -14.2269
  76   2.0000      -0.521346       -14.1865
  77   2.0000      -0.515210       -14.0196
  78   2.0000      -0.513093       -13.9620
  79   2.0000      -0.506700       -13.7880
  80   2.0000      -0.499465       -13.5911
  81   2.0000      -0.496803       -13.5187
  82   2.0000      -0.495704       -13.4888
  83   2.0000      -0.492825       -13.4105
  84   2.0000      -0.491560       -13.3760
  85   2.0000      -0.488546       -13.2940
  86   2.0000      -0.482508       -13.1297
  87   2.0000      -0.479178       -13.0391
  88   2.0000      -0.474149       -12.9023
  89   2.0000      -0.471029       -12.8174
  90   2.0000      -0.468629       -12.7520
  91   2.0000      -0.466671       -12.6988
  92   2.0000      -0.465980       -12.6800
  93   2.0000      -0.461153       -12.5486
  94   2.0000      -0.458502       -12.4765
  95   2.0000      -0.450372       -12.2552
  96   2.0000      -0.446541       -12.1510
  97   2.0000      -0.443304       -12.0629
  98   2.0000      -0.442000       -12.0274
  99   2.0000      -0.439224       -11.9519
 100   2.0000      -0.438137       -11.9223
 101   2.0000      -0.429798       -11.6954
 102   2.0000      -0.425280       -11.5725
 103   2.0000      -0.423734       -11.5304
 104   2.0000      -0.418002       -11.3744
 105   2.0000      -0.408298       -11.1103
 106   2.0000      -0.404082       -10.9956
 107   2.0000      -0.397828       -10.8254
 108   2.0000      -0.391843       -10.6626
 109   2.0000      -0.391358       -10.6494
 110   2.0000      -0.388198       -10.5634
 111   2.0000      -0.380718       -10.3599
 112   2.0000      -0.376674       -10.2498
 113   2.0000      -0.357727        -9.7343
 114   2.0000      -0.343219        -9.3395
 115   2.0000      -0.325956        -8.8697
 116   2.0000      -0.311689        -8.4815
 117   2.0000      -0.304237        -8.2787
 118   2.0000      -0.266803        -7.2601
 119   0.0000       0.007184         0.1955
 120   0.0000       0.086207         2.3458
 121   0.0000       0.088161         2.3990
 122   0.0000       0.112998         3.0748
 123   0.0000       0.120788         3.2868

MULLIKEN ATOMIC CHARGES
-----------------------
   0 C :   -0.112908
   1 C :   -0.194794
   2 C :    0.067067
   3 C :    0.125511
   4 C :   -0.093476
   5 C :   -0.139796
   6 H :    0.110621
   7 H :    0.128976
   8 H :    0.096079
   9 H :    0.113212
  10 B :    0.024716
  11 H :    0.003696
  12 C :   -0.471104
  13 C :   -0.016491
  14 C :   -0.104325
  15 H :    0.164641
  16 C :   -0.306866
  17 H :    0.145632
  18 H :    0.177556
  19 B :    0.656224
  20 O :   -0.520689
  21 O :   -0.533938
  22 C :    0.225901
  23 C :    0.228897
  24 C :   -0.356936
  25 H :    0.133755
  26 H :    0.113157
  27 H :    0.129329
  28 C :   -0.353645
  29 H :    0.131171
  30 H :    0.128737
  31 H :    0.111641
  32 C :   -0.354141
  33 H :    0.124190
  34 H :    0.114974
  35 H :    0.127844
  36 C :   -0.355210
  37 H :    0.113832
  38 H :    0.127846
  39 H :    0.131535
  40 N :   -0.501727
  41 S :    0.349038
  42 H :   -0.014587
  43 C :    0.156724
  44 C :    0.159491
  45 C :   -0.210423
  46 C :   -0.325293
  47 C :   -0.338084
  48 C :   -0.211667
  49 H :    0.103069
  50 H :    0.102755
  51 C :   -0.218996
  52 C :   -0.340708
  53 C :   -0.308461
  54 H :    0.106923
  55 H :    0.102610
  56 H :    0.111124
  57 H :    0.101929
  58 H :    0.107771
  59 H :    0.108993
  60 H :    0.129592
  61 H :    0.093524
  62 H :    0.118613
  63 H :    0.107431
  64 H :    0.104826
  65 H :    0.125993
  66 H :    0.098898
  67 H :    0.119864
  68 H :    0.105915
  69 H :    0.112447
Sum of atomic charges:    0.0000000

LOEWDIN ATOMIC CHARGES
----------------------
   0 C :   -0.089266
   1 C :   -0.084444
   2 C :   -0.037588
   3 C :    0.039497
   4 C :   -0.091518
   5 C :   -0.086580
   6 H :    0.075004
   7 H :    0.082376
   8 H :    0.072815
   9 H :    0.075664
  10 B :   -0.253410
  11 H :    0.149560
  12 C :   -0.179160
  13 C :    0.001151
  14 C :   -0.126826
  15 H :    0.102541
  16 C :   -0.194146
  17 H :    0.090720
  18 H :    0.101898
  19 B :   -0.079895
  20 O :   -0.151126
  21 O :   -0.164049
  22 C :    0.087164
  23 C :    0.087428
  24 C :   -0.208544
  25 H :    0.083104
  26 H :    0.073939
  27 H :    0.079619
  28 C :   -0.205178
  29 H :    0.082687
  30 H :    0.080469
  31 H :    0.074310
  32 C :   -0.208188
  33 H :    0.079112
  34 H :    0.074855
  35 H :    0.079936
  36 C :   -0.205469
  37 H :    0.075467
  38 H :    0.081162
  39 H :    0.081457
  40 N :   -0.137213
  41 S :    0.429330
  42 H :    0.031900
  43 C :    0.036545
  44 C :    0.040174
  45 C :   -0.137674
  46 C :   -0.206084
  47 C :   -0.199810
  48 C :   -0.131221
  49 H :    0.067407
  50 H :    0.066604
  51 C :   -0.131758
  52 C :   -0.201962
  53 C :   -0.205891
  54 H :    0.071786
  55 H :    0.064376
  56 H :    0.071425
  57 H :    0.063112
  58 H :    0.071116
  59 H :    0.069739
  60 H :    0.079305
  61 H :    0.064137
  62 H :    0.075215
  63 H :    0.071009
  64 H :    0.065377
  65 H :    0.076360
  66 H :    0.066514
  67 H :    0.075308
  68 H :    0.071567
  69 H :    0.076756

  Mayer bond orders larger than 0.100000
B(  0-C ,  1-C ) :   1.4467 B(  0-C ,  5-C ) :   1.4335 B(  0-C ,  6-H ) :   0.9507
B(  1-C ,  2-C ) :   1.3651 B(  1-C ,  7-H ) :   0.9244 B(  2-C ,  3-C ) :   1.4270
B(  2-C , 10-B ) :   0.9982 B(  3-C ,  4-C ) :   1.3872 B(  3-C , 40-N ) :   0.9802
B(  4-C ,  5-C ) :   1.4432 B(  4-C ,  8-H ) :   0.9412 B(  5-C ,  9-H ) :   0.9473
B( 10-B , 11-H ) :   0.5314 B( 10-B , 12-C ) :   0.5978 B( 10-B , 19-B ) :   0.3321
B( 10-B , 42-H ) :   0.9384 B( 11-H , 19-B ) :   0.4103 B( 12-C , 13-C ) :   1.4492
B( 12-C , 19-B ) :   0.4864 B( 12-C , 41-S ) :   1.0886 B( 13-C , 14-C ) :   1.3575
B( 13-C , 15-H ) :   0.9270 B( 14-C , 16-C ) :   1.5370 B( 14-C , 17-H ) :   0.9432
B( 16-C , 18-H ) :   0.9319 B( 16-C , 41-S ) :   1.2412 B( 19-B , 20-O ) :   1.0216
B( 19-B , 21-O ) :   1.0032 B( 20-O , 22-C ) :   0.8782 B( 21-O , 23-C ) :   0.8741
B( 22-C , 23-C ) :   0.9561 B( 22-C , 24-C ) :   0.9881 B( 22-C , 28-C ) :   1.0042
B( 23-C , 32-C ) :   0.9867 B( 23-C , 36-C ) :   1.0040 B( 24-C , 25-H ) :   0.9570
B( 24-C , 26-H ) :   0.9543 B( 24-C , 27-H ) :   0.9565 B( 28-C , 29-H ) :   0.9586
B( 28-C , 30-H ) :   0.9554 B( 28-C , 31-H ) :   0.9564 B( 32-C , 33-H ) :   0.9582
B( 32-C , 34-H ) :   0.9545 B( 32-C , 35-H ) :   0.9537 B( 36-C , 37-H ) :   0.9563
B( 36-C , 38-H ) :   0.9589 B( 36-C , 39-H ) :   0.9553 B( 40-N , 43-C ) :   0.9627
B( 40-N , 44-C ) :   0.9287 B( 43-C , 45-C ) :   0.9494 B( 43-C , 46-C ) :   0.9887
B( 43-C , 47-C ) :   1.0091 B( 44-C , 51-C ) :   0.9707 B( 44-C , 52-C ) :   1.0032
B( 44-C , 53-C ) :   0.9893 B( 45-C , 48-C ) :   0.9894 B( 45-C , 49-H ) :   0.9561
B( 45-C , 50-H ) :   0.9602 B( 46-C , 64-H ) :   0.9561 B( 46-C , 65-H ) :   0.9540
B( 46-C , 66-H ) :   0.9594 B( 47-C , 67-H ) :   0.9524 B( 47-C , 68-H ) :   0.9606
B( 47-C , 69-H ) :   0.9526 B( 48-C , 51-C ) :   0.9962 B( 48-C , 56-H ) :   0.9610
B( 48-C , 57-H ) :   0.9542 B( 51-C , 54-H ) :   0.9547 B( 51-C , 55-H ) :   0.9514
B( 52-C , 58-H ) :   0.9586 B( 52-C , 59-H ) :   0.9577 B( 52-C , 60-H ) :   0.9529
B( 53-C , 61-H ) :   0.9573 B( 53-C , 62-H ) :   0.9590 B( 53-C , 63-H ) :   0.9599

Dispersion correction           -0.050416212
FINAL SINGLE POINT ENERGY     -1629.047227267497

DIPOLE MOMENT
-------------

Method             : SCF
Type of density    : Electron Density
Multiplicity       :   1
Irrep              :   0
Energy             : -1628.9968110552608778 Eh
Basis              : AO
                                X                 Y                 Z
Electronic contribution:      4.858094464      -4.827758540      11.253619364
Nuclear contribution   :     -4.347876517       4.424038494     -10.029611110
                        -----------------------------------------
Total Dipole Moment    :      0.510217947      -0.403720047       1.224008254
                        -----------------------------------------
Magnitude (a.u.)       :      1.386184849
Magnitude (Debye)      :      3.523401876

Rotational constants in cm-1:             0.008288             0.003167             0.002963
Rotational constants in MHz :           248.461047            94.952591            88.817163

                             ****ORCA TERMINATED NORMALLY****
TOTAL RUN TIME: 0 days 0 hours 25 minutes 33 seconds 180 msec
