                         Program Version 6.0.1  -  RELEASE   -
|  1> # Automatically generated ORCA input
|  2>
|  3> # Number of cores
|  4> %pal nprocs 24 end
|  5> # RAM per core
|  6> %maxcore 2560
|  7>
|  8> ! wB97X-D3
|  9> ! 6-31G**
| 10> ! TightSCF
| 11> ! NoSym
| 12> ! IRC
| 13>
| 14> %geom
| 15>     Calc_Hess true
| 16>     end
| 17>
| 18>
| 19> *xyz 0 1
| 20> C        -0.54482800      1.90131400      1.75786000
| 21> C        -0.74122800      0.52934600      2.02632000
| 22> C        -1.43591000      0.20865000      3.19852100
| 23> C        -1.93878000      1.17632400      4.06386200
| 24> C        -1.75690000      2.52217500      3.77293200
| 25> C        -1.05855700      2.87301900      2.62322100
| 26> H        -1.59016700     -0.83435700      3.45636700
| 27> H        -2.47279200      0.87596600      4.96190400
| 28> H        -2.14550500      3.29152300      4.43466200
| 29> H        -0.89874600      3.92260900      2.38983900
| 30> N         0.21078800      2.27686700      0.59142800
| 31> C        -0.54967800      2.83077200     -0.56118000
| 32> C         1.59036900      2.78520200      0.83093900
| 33> C        -0.46833700      4.37342300     -0.59957400
| 34> C        -0.02728100      2.24312500     -1.89363300
| 35> C        -2.02973500      2.42605600     -0.47075800
| 36> C         1.63533200      4.32867100      0.77510600
| 37> C         2.58164300      2.18820500     -0.19276500
| 38> C         2.10033800      2.33507700      2.20965100
| 39> H        -0.92679800      4.73774700     -1.52802700
| 40> H        -1.07310000      4.77431500      0.22517200
| 41> C         0.96025600      4.89997800     -0.47052800
| 42> H         0.87208300      2.73704300     -2.26432300
| 43> H         0.19972300      1.18283700     -1.75732600
| 44> H        -0.78896200      2.34682600     -2.67374300
| 45> H        -2.13856900      1.33785400     -0.44930500
| 46> H        -2.55188500      2.80800700     -1.35358400
| 47> H        -2.52008400      2.83465400      0.41473400
| 48> H         2.67913700      4.66323400      0.83139700
| 49> H         1.13246500      4.72427700      1.66787200
| 50> H         2.43544400      1.10703100     -0.25875000
| 51> H         2.47925500      2.60689100     -1.19391100
| 52> H         3.60978700      2.38630000      0.12912800
| 53> H         3.14055400      2.65683600      2.32144700
| 54> H         1.52496200      2.76299600      3.03251400
| 55> H         2.06437600      1.24571900      2.30112200
| 56> H         0.95147300      5.99491300     -0.42251700
| 57> H         1.54178600      4.64359500     -1.36514600
| 58> B        -0.12928500     -0.50515900      0.95749400
| 59> H         1.06767500     -0.43460500      0.81546500
| 60> C        -2.12713800     -3.74162800     -2.98391300
| 61> H        -1.87249400     -3.83193100     -4.04488800
| 62> H        -2.01256000     -4.71776900     -2.50952900
| 63> H        -3.17890900     -3.45296600     -2.91161300
| 64> C        -1.61691900     -1.29853500     -2.84797500
| 65> H        -1.01755600     -0.51877700     -2.37349400
| 66> H        -1.47814700     -1.23806800     -3.93126900
| 67> H        -2.66623800     -1.09233700     -2.62145200
| 68> C         0.59693300     -4.48553200     -2.33015900
| 69> H         1.66685300     -4.61893400     -2.14894800
| 70> H         0.05181700     -5.00623800     -1.53753600
| 71> H         0.35034800     -4.95032100     -3.28890600
| 72> C         1.05809800     -2.27547600     -3.41866900
| 73> H         0.70753000     -2.58275200     -4.40925100
| 74> C        -1.26376500     -2.68446200     -2.30915300
| 75> C         0.27893700     -2.99030600     -2.32410300
| 76> O        -1.56450200     -2.68861300     -0.89842900
| 77> O         0.71918800     -2.48144700     -1.04656400
| 78> B        -0.39392800     -2.38025500     -0.24491900
| 79> H         0.96263500     -1.19204200     -3.32949600
| 80> H         2.11871700     -2.52855800     -3.33936200
| 81> H        -0.66022800     -0.39431300     -0.13793500
| 82> C         2.14806200     -2.63500000      1.74938100
| 83> N         0.73991400     -2.83043900      2.05643300
| 84> C        -0.33997000     -2.25992800      1.33169400
| 85> C        -1.50164700     -2.72356400      2.01426000
| 86> C        -1.12789700     -3.49649600      3.09690400
| 87> C         0.27348900     -3.52550800      3.08770700
| 88> H         2.72664500     -3.40254200      2.26589300
| 89> H         2.46932200     -1.64300800      2.07227400
| 90> H         2.29020700     -2.71885200      0.67181500
| 91> H        -2.50779300     -2.50047300      1.68417400
| 92> H        -1.76489100     -3.98792400      3.81795900
| 93> H         0.95097400     -4.01516800      3.77648600
| 94> *
| 95>
| 96>
| 97>                          ****END OF INPUT****

CARTESIAN COORDINATES (ANGSTROEM)
---------------------------------
  C     -0.544828    1.901314    1.757860
  C     -0.741228    0.529346    2.026320
  C     -1.435910    0.208650    3.198521
  C     -1.938780    1.176324    4.063862
  C     -1.756900    2.522175    3.772932
  C     -1.058557    2.873019    2.623221
  H     -1.590167   -0.834357    3.456367
  H     -2.472792    0.875966    4.961904
  H     -2.145505    3.291523    4.434662
  H     -0.898746    3.922609    2.389839
  N      0.210788    2.276867    0.591428
  C     -0.549678    2.830772   -0.561180
  C      1.590369    2.785202    0.830939
  C     -0.468337    4.373423   -0.599574
  C     -0.027281    2.243125   -1.893633
  C     -2.029735    2.426056   -0.470758
  C      1.635332    4.328671    0.775106
  C      2.581643    2.188205   -0.192765
  C      2.100338    2.335077    2.209651
  H     -0.926798    4.737747   -1.528027
  H     -1.073100    4.774315    0.225172
  C      0.960256    4.899978   -0.470528
  H      0.872083    2.737043   -2.264323
  H      0.199723    1.182837   -1.757326
  H     -0.788962    2.346826   -2.673743
  H     -2.138569    1.337854   -0.449305
  H     -2.551885    2.808007   -1.353584
  H     -2.520084    2.834654    0.414734
  H      2.679137    4.663234    0.831397
  H      1.132465    4.724277    1.667872
  H      2.435444    1.107031   -0.258750
  H      2.479255    2.606891   -1.193911
  H      3.609787    2.386300    0.129128
  H      3.140554    2.656836    2.321447
  H      1.524962    2.762996    3.032514
  H      2.064376    1.245719    2.301122
  H      0.951473    5.994913   -0.422517
  H      1.541786    4.643595   -1.365146
  B     -0.129285   -0.505159    0.957494
  H      1.067675   -0.434605    0.815465
  C     -2.127138   -3.741628   -2.983913
  H     -1.872494   -3.831931   -4.044888
  H     -2.012560   -4.717769   -2.509529
  H     -3.178909   -3.452966   -2.911613
  C     -1.616919   -1.298535   -2.847975
  H     -1.017556   -0.518777   -2.373494
  H     -1.478147   -1.238068   -3.931269
  H     -2.666238   -1.092337   -2.621452
  C      0.596933   -4.485532   -2.330159
  H      1.666853   -4.618934   -2.148948
  H      0.051817   -5.006238   -1.537536
  H      0.350348   -4.950321   -3.288906
  C      1.058098   -2.275476   -3.418669
  H      0.707530   -2.582752   -4.409251
  C     -1.263765   -2.684462   -2.309153
  C      0.278937   -2.990306   -2.324103
  O     -1.564502   -2.688613   -0.898429
  O      0.719188   -2.481447   -1.046564
  B     -0.393928   -2.380255   -0.244919
  H      0.962635   -1.192042   -3.329496
  H      2.118717   -2.528558   -3.339362
  H     -0.660228   -0.394313   -0.137935
  C      2.148062   -2.635000    1.749381
  N      0.739914   -2.830439    2.056433
  C     -0.339970   -2.259928    1.331694
  C     -1.501647   -2.723564    2.014260
  C     -1.127897   -3.496496    3.096904
  C      0.273489   -3.525508    3.087707
  H      2.726645   -3.402542    2.265893
  H      2.469322   -1.643008    2.072274
  H      2.290207   -2.718852    0.671815
  H     -2.507793   -2.500473    1.684174
  H     -1.764891   -3.987924    3.817959
  H      0.950974   -4.015168    3.776486

 Total Charge           Charge          ....    0
 Multiplicity           Mult            ....    1
 Number of Electrons    NEL             ....  238
 Basis Dimension        Dim             ....  658

ORBITAL ENERGIES
----------------

  NO   OCC          E(Eh)            E(eV)
   0   2.0000     -19.247546      -523.7523
   1   2.0000     -19.244027      -523.6566
   2   2.0000     -14.518311      -395.0633
   3   2.0000     -14.389256      -391.5516
   4   2.0000     -10.352410      -281.7034
   5   2.0000     -10.349973      -281.6371
   6   2.0000     -10.347658      -281.5741
   7   2.0000     -10.330229      -281.0998
   8   2.0000     -10.311992      -280.6036
   9   2.0000     -10.304160      -280.3905
  10   2.0000     -10.301685      -280.3231
  11   2.0000     -10.301173      -280.3092
  12   2.0000     -10.297099      -280.1983
  13   2.0000     -10.282970      -279.8138
  14   2.0000     -10.278699      -279.6976
  15   2.0000     -10.277557      -279.6665
  16   2.0000     -10.277066      -279.6532
  17   2.0000     -10.269072      -279.4356
  18   2.0000     -10.262134      -279.2469
  19   2.0000     -10.260797      -279.2105
  20   2.0000     -10.259789      -279.1830
  21   2.0000     -10.257168      -279.1117
  22   2.0000     -10.256838      -279.1028
  23   2.0000     -10.256535      -279.0945
  24   2.0000     -10.253864      -279.0218
  25   2.0000     -10.247637      -278.8524
  26   2.0000     -10.247635      -278.8523
  27   2.0000     -10.246465      -278.8205
  28   2.0000     -10.244945      -278.7791
  29   2.0000     -10.239856      -278.6406
  30   2.0000      -6.892778      -187.5620
  31   2.0000      -6.785571      -184.6448
  32   2.0000      -1.177000       -32.0278
  33   2.0000      -1.130483       -30.7620
  34   2.0000      -1.105862       -30.0920
  35   2.0000      -1.018485       -27.7144
  36   2.0000      -0.943403       -25.6713
  37   2.0000      -0.935476       -25.4556
  38   2.0000      -0.923982       -25.1428
  39   2.0000      -0.900018       -24.4907
  40   2.0000      -0.889087       -24.1933
  41   2.0000      -0.867594       -23.6084
  42   2.0000      -0.865900       -23.5623
  43   2.0000      -0.838125       -22.8065
  44   2.0000      -0.826047       -22.4779
  45   2.0000      -0.822854       -22.3910
  46   2.0000      -0.821423       -22.3520
  47   2.0000      -0.800876       -21.7930
  48   2.0000      -0.791344       -21.5336
  49   2.0000      -0.777936       -21.1687
  50   2.0000      -0.766914       -20.8688
  51   2.0000      -0.765854       -20.8399
  52   2.0000      -0.735287       -20.0082
  53   2.0000      -0.706747       -19.2316
  54   2.0000      -0.701501       -19.0888
  55   2.0000      -0.699078       -19.0229
  56   2.0000      -0.677640       -18.4395
  57   2.0000      -0.666417       -18.1341
  58   2.0000      -0.657640       -17.8953
  59   2.0000      -0.656971       -17.8771
  60   2.0000      -0.654469       -17.8090
  61   2.0000      -0.635843       -17.3022
  62   2.0000      -0.618242       -16.8232
  63   2.0000      -0.596160       -16.2223
  64   2.0000      -0.583507       -15.8780
  65   2.0000      -0.571213       -15.5435
  66   2.0000      -0.568464       -15.4687
  67   2.0000      -0.563623       -15.3370
  68   2.0000      -0.555886       -15.1264
  69   2.0000      -0.552765       -15.0415
  70   2.0000      -0.548931       -14.9372
  71   2.0000      -0.545636       -14.8475
  72   2.0000      -0.539293       -14.6749
  73   2.0000      -0.534880       -14.5548
  74   2.0000      -0.532628       -14.4935
  75   2.0000      -0.524485       -14.2720
  76   2.0000      -0.513484       -13.9726
  77   2.0000      -0.513188       -13.9645
  78   2.0000      -0.507789       -13.8176
  79   2.0000      -0.505415       -13.7530
  80   2.0000      -0.501000       -13.6329
  81   2.0000      -0.500121       -13.6090
  82   2.0000      -0.495142       -13.4735
  83   2.0000      -0.494001       -13.4424
  84   2.0000      -0.490950       -13.3594
  85   2.0000      -0.488931       -13.3045
  86   2.0000      -0.486143       -13.2286
  87   2.0000      -0.481506       -13.1025
  88   2.0000      -0.474014       -12.8986
  89   2.0000      -0.470498       -12.8029
  90   2.0000      -0.464995       -12.6531
  91   2.0000      -0.461755       -12.5650
  92   2.0000      -0.459106       -12.4929
  93   2.0000      -0.456452       -12.4207
  94   2.0000      -0.453770       -12.3477
  95   2.0000      -0.452953       -12.3255
  96   2.0000      -0.442936       -12.0529
  97   2.0000      -0.438597       -11.9348
  98   2.0000      -0.436044       -11.8654
  99   2.0000      -0.430755       -11.7214
 100   2.0000      -0.427365       -11.6292
 101   2.0000      -0.424539       -11.5523
 102   2.0000      -0.422953       -11.5091
 103   2.0000      -0.419720       -11.4212
 104   2.0000      -0.409626       -11.1465
 105   2.0000      -0.409249       -11.1362
 106   2.0000      -0.398374       -10.8403
 107   2.0000      -0.391661       -10.6576
 108   2.0000      -0.390028       -10.6132
 109   2.0000      -0.377250       -10.2655
 110   2.0000      -0.371950       -10.1213
 111   2.0000      -0.369141       -10.0448
 112   2.0000      -0.362316        -9.8591
 113   2.0000      -0.354342        -9.6421
 114   2.0000      -0.351158        -9.5555
 115   2.0000      -0.333993        -9.0884
 116   2.0000      -0.299022        -8.1368
 117   2.0000      -0.285037        -7.7563
 118   2.0000      -0.258347        -7.0300
 119   0.0000       0.030810         0.8384
 120   0.0000       0.101441         2.7603
 121   0.0000       0.104195         2.8353
 122   0.0000       0.132410         3.6030
 123   0.0000       0.150996         4.1088

MULLIKEN ATOMIC CHARGES
-----------------------
   0 C :    0.122210
   1 C :    0.073118
   2 C :   -0.177027
   3 C :   -0.107787
   4 C :   -0.145138
   5 C :   -0.098886
   6 H :    0.076079
   7 H :    0.100017
   8 H :    0.105709
   9 H :    0.094278
  10 N :   -0.495621
  11 C :    0.150537
  12 C :    0.146361
  13 C :   -0.187001
  14 C :   -0.329648
  15 C :   -0.342827
  16 C :   -0.184430
  17 C :   -0.321448
  18 C :   -0.339137
  19 H :    0.097207
  20 H :    0.096703
  21 C :   -0.227025
  22 H :    0.097075
  23 H :    0.134185
  24 H :    0.097230
  25 H :    0.130343
  26 H :    0.100343
  27 H :    0.120494
  28 H :    0.096560
  29 H :    0.095770
  30 H :    0.133173
  31 H :    0.094226
  32 H :    0.093836
  33 H :    0.100115
  34 H :    0.120766
  35 H :    0.121378
  36 H :    0.108311
  37 H :    0.098962
  38 B :    0.059359
  39 H :   -0.104929
  40 C :   -0.353141
  41 H :    0.114920
  42 H :    0.126779
  43 H :    0.132537
  44 C :   -0.343549
  45 H :    0.133996
  46 H :    0.111979
  47 H :    0.132517
  48 C :   -0.352283
  49 H :    0.126640
  50 H :    0.126859
  51 H :    0.117275
  52 C :   -0.351021
  53 H :    0.114477
  54 C :    0.207780
  55 C :    0.219474
  56 O :   -0.492281
  57 O :   -0.505178
  58 B :    0.680444
  59 H :    0.139931
  60 H :    0.127469
  61 H :   -0.106707
  62 C :   -0.222540
  63 N :   -0.371802
  64 C :   -0.089807
  65 C :   -0.102996
  66 C :   -0.187007
  67 C :    0.100257
  68 H :    0.129562
  69 H :    0.175481
  70 H :    0.184195
  71 H :    0.170796
  72 H :    0.141692
  73 H :    0.159812
Sum of atomic charges:   -0.0000000

LOEWDIN ATOMIC CHARGES
----------------------
   0 C :    0.036335
   1 C :   -0.026492
   2 C :   -0.091948
   3 C :   -0.091352
   4 C :   -0.096845
   5 C :   -0.099468
   6 H :    0.067756
   7 H :    0.070713
   8 H :    0.072488
   9 H :    0.069308
  10 N :   -0.131583
  11 C :    0.038188
  12 C :    0.038359
  13 C :   -0.133157
  14 C :   -0.206837
  15 C :   -0.200712
  16 C :   -0.133044
  17 C :   -0.206801
  18 C :   -0.199845
  19 H :    0.066598
  20 H :    0.064472
  21 C :   -0.136222
  22 H :    0.063104
  23 H :    0.079438
  24 H :    0.066305
  25 H :    0.081611
  26 H :    0.068046
  27 H :    0.075560
  28 H :    0.066399
  29 H :    0.064120
  30 H :    0.081101
  31 H :    0.063185
  32 H :    0.064687
  33 H :    0.068011
  34 H :    0.075479
  35 H :    0.078036
  36 H :    0.069925
  37 H :    0.062419
  38 B :   -0.296147
  39 H :   -0.005299
  40 C :   -0.205234
  41 H :    0.075884
  42 H :    0.079266
  43 H :    0.083282
  44 C :   -0.206803
  45 H :    0.083203
  46 H :    0.074465
  47 H :    0.083771
  48 C :   -0.207459
  49 H :    0.079866
  50 H :    0.078404
  51 H :    0.075858
  52 C :   -0.204254
  53 H :    0.075828
  54 C :    0.089946
  55 C :    0.090847
  56 O :   -0.123161
  57 O :   -0.118764
  58 B :   -0.061165
  59 H :    0.085074
  60 H :    0.081210
  61 H :    0.024068
  62 C :   -0.110865
  63 N :    0.082751
  64 C :   -0.038193
  65 C :    0.012748
  66 C :   -0.145070
  67 C :    0.009736
  68 H :    0.080727
  69 H :    0.096123
  70 H :    0.102747
  71 H :    0.102432
  72 H :    0.087637
  73 H :    0.089210

  Mayer bond orders larger than 0.100000
B(  0-C ,  1-C ) :   1.4204 B(  0-C ,  5-C ) :   1.4042 B(  0-C , 10-N ) :   0.9703
B(  1-C ,  2-C ) :   1.3870 B(  1-C , 38-B ) :   0.9658 B(  2-C ,  3-C ) :   1.4353
B(  2-C ,  6-H ) :   0.9343 B(  3-C ,  4-C ) :   1.4510 B(  3-C ,  7-H ) :   0.9520
B(  4-C ,  5-C ) :   1.4253 B(  4-C ,  8-H ) :   0.9482 B(  5-C ,  9-H ) :   0.9423
B( 10-N , 11-C ) :   0.9507 B( 10-N , 12-C ) :   0.9468 B( 11-C , 13-C ) :   0.9669
B( 11-C , 14-C ) :   0.9823 B( 11-C , 15-C ) :   1.0081 B( 12-C , 16-C ) :   0.9667
B( 12-C , 17-C ) :   0.9867 B( 12-C , 18-C ) :   1.0066 B( 13-C , 19-H ) :   0.9534
B( 13-C , 20-H ) :   0.9534 B( 13-C , 21-C ) :   0.9958 B( 14-C , 22-H ) :   0.9578
B( 14-C , 23-H ) :   0.9494 B( 14-C , 24-H ) :   0.9610 B( 15-C , 25-H ) :   0.9529
B( 15-C , 26-H ) :   0.9590 B( 15-C , 27-H ) :   0.9533 B( 16-C , 21-C ) :   0.9962
B( 16-C , 28-H ) :   0.9534 B( 16-C , 29-H ) :   0.9533 B( 17-C , 30-H ) :   0.9569
B( 17-C , 31-H ) :   0.9591 B( 17-C , 32-H ) :   0.9609 B( 18-C , 33-H ) :   0.9596
B( 18-C , 34-H ) :   0.9535 B( 18-C , 35-H ) :   0.9549 B( 21-C , 36-H ) :   0.9602
B( 21-C , 37-H ) :   0.9553 B( 38-B , 39-H ) :   0.9093 B( 38-B , 58-B ) :   0.1178
B( 38-B , 61-H ) :   0.8292 B( 38-B , 64-C ) :   0.5376 B( 40-C , 41-H ) :   0.9565
B( 40-C , 42-H ) :   0.9554 B( 40-C , 43-H ) :   0.9582 B( 40-C , 54-C ) :   1.0057
B( 44-C , 45-H ) :   0.9466 B( 44-C , 46-H ) :   0.9535 B( 44-C , 47-H ) :   0.9561
B( 44-C , 54-C ) :   0.9945 B( 48-C , 49-H ) :   0.9580 B( 48-C , 50-H ) :   0.9583
B( 48-C , 51-H ) :   0.9537 B( 48-C , 55-C ) :   0.9919 B( 52-C , 53-H ) :   0.9560
B( 52-C , 55-C ) :   1.0066 B( 52-C , 59-H ) :   0.9523 B( 52-C , 60-H ) :   0.9581
B( 54-C , 55-C ) :   0.9575 B( 54-C , 56-O ) :   0.8702 B( 55-C , 57-O ) :   0.8650
B( 56-O , 58-B ) :   1.1173 B( 57-O , 58-B ) :   1.0631 B( 58-B , 61-H ) :   0.1029
B( 58-B , 64-C ) :   0.7990 B( 62-C , 63-N ) :   0.9094 B( 62-C , 68-H ) :   0.9583
B( 62-C , 69-H ) :   0.9406 B( 62-C , 70-H ) :   0.9311 B( 63-N , 64-C ) :   0.9885
B( 63-N , 67-C ) :   1.3705 B( 64-C , 65-C ) :   1.2734 B( 65-C , 66-C ) :   1.5250
B( 65-C , 71-H ) :   0.9373 B( 66-C , 67-C ) :   1.3678 B( 66-C , 72-H ) :   0.9479
B( 67-C , 73-H ) :   0.9373

Dispersion correction           -0.051861327
FINAL SINGLE POINT ENERGY     -1325.531040521010
Dispersion correction             ... done (  0.0 sec)

DIPOLE MOMENT
-------------

Method             : SCF
Type of density    : Electron Density
Multiplicity       :   1
Irrep              :   0
Energy             : -1325.4791791943698627 Eh
Relativity type    :
Basis              : AO
                                X                 Y                 Z
Electronic contribution:     -9.084866573     -15.752058657      21.618873289
Nuclear contribution   :      9.609579348      13.717723480     -21.713594378
                        -----------------------------------------
Total Dipole Moment    :      0.524712775      -2.034335177      -0.094721090
                        -----------------------------------------
Magnitude (a.u.)       :      2.103049023
Magnitude (Debye)      :      5.345525801

--------------------------
THERMOCHEMISTRY AT 298.15K
--------------------------

Temperature         ...   298.15 K
Pressure            ...     1.00 atm
Total Mass          ...   436.25 AMU
Quasi RRHO          ...     True
Cut-Off Frequency   ...     1.00 cm^-1

Throughout the following assumptions are being made:
  (1) The electronic state is orbitally nondegenerate
  (2) There are no thermally accessible electronically excited states
  (3) Hindered rotations indicated by low frequency modes are not
      treated as such but are treated as vibrations and this may
      cause some error
  (4) All equations used are the standard statistical mechanics
      equations for an ideal gas
  (5) All vibrations are strictly harmonic

freq.      23.61  E(vib)   ...       0.56
freq.      33.88  E(vib)   ...       0.55
freq.      50.64  E(vib)   ...       0.52
freq.      64.69  E(vib)   ...       0.50
freq.      73.20  E(vib)   ...       0.49
freq.      84.98  E(vib)   ...       0.48
freq.      85.61  E(vib)   ...       0.48
freq.      98.08  E(vib)   ...       0.46
freq.     115.37  E(vib)   ...       0.44
freq.     133.08  E(vib)   ...       0.42
freq.     134.32  E(vib)   ...       0.42
freq.     149.05  E(vib)   ...       0.40
freq.     166.90  E(vib)   ...       0.39
freq.     174.02  E(vib)   ...       0.38
freq.     177.07  E(vib)   ...       0.37
freq.     197.54  E(vib)   ...       0.35
freq.     223.77  E(vib)   ...       0.33
freq.     232.55  E(vib)   ...       0.32
freq.     246.00  E(vib)   ...       0.31
freq.     260.68  E(vib)   ...       0.30
freq.     264.63  E(vib)   ...       0.29
freq.     275.31  E(vib)   ...       0.28
freq.     286.56  E(vib)   ...       0.27
freq.     291.60  E(vib)   ...       0.27
freq.     296.17  E(vib)   ...       0.27
freq.     297.99  E(vib)   ...       0.27
freq.     302.44  E(vib)   ...       0.26
freq.     304.12  E(vib)   ...       0.26
freq.     309.16  E(vib)   ...       0.26
freq.     313.10  E(vib)   ...       0.25
freq.     318.67  E(vib)   ...       0.25
freq.     327.71  E(vib)   ...       0.24
freq.     347.35  E(vib)   ...       0.23
freq.     353.72  E(vib)   ...       0.22
freq.     359.05  E(vib)   ...       0.22
freq.     365.75  E(vib)   ...       0.22
freq.     369.69  E(vib)   ...       0.21
freq.     378.82  E(vib)   ...       0.21
freq.     404.18  E(vib)   ...       0.19
freq.     409.33  E(vib)   ...       0.19
freq.     414.59  E(vib)   ...       0.19
freq.     424.73  E(vib)   ...       0.18
freq.     432.50  E(vib)   ...       0.18
freq.     441.40  E(vib)   ...       0.17
freq.     464.97  E(vib)   ...       0.16
freq.     482.32  E(vib)   ...       0.15
freq.     495.02  E(vib)   ...       0.14
freq.     510.25  E(vib)   ...       0.14
freq.     516.36  E(vib)   ...       0.13
freq.     531.43  E(vib)   ...       0.13
freq.     533.33  E(vib)   ...       0.13
freq.     558.73  E(vib)   ...       0.12
freq.     577.27  E(vib)   ...       0.11
freq.     590.34  E(vib)   ...       0.10
freq.     591.39  E(vib)   ...       0.10
freq.     591.80  E(vib)   ...       0.10
freq.     612.97  E(vib)   ...       0.10
freq.     616.71  E(vib)   ...       0.09
freq.     680.26  E(vib)   ...       0.08
freq.     683.61  E(vib)   ...       0.07
freq.     691.51  E(vib)   ...       0.07
freq.     708.94  E(vib)   ...       0.07
freq.     730.29  E(vib)   ...       0.06
freq.     770.87  E(vib)   ...       0.05
freq.     775.19  E(vib)   ...       0.05
freq.     794.84  E(vib)   ...       0.05
freq.     805.76  E(vib)   ...       0.05
freq.     816.33  E(vib)   ...       0.05
freq.     823.33  E(vib)   ...       0.05
freq.     843.20  E(vib)   ...       0.04
freq.     875.01  E(vib)   ...       0.04
freq.     881.21  E(vib)   ...       0.04
freq.     889.35  E(vib)   ...       0.04
freq.     891.99  E(vib)   ...       0.03
freq.     903.42  E(vib)   ...       0.03
freq.     908.01  E(vib)   ...       0.03
freq.     912.11  E(vib)   ...       0.03
freq.     931.60  E(vib)   ...       0.03
freq.     949.14  E(vib)   ...       0.03
freq.     950.64  E(vib)   ...       0.03
freq.     952.34  E(vib)   ...       0.03
freq.     954.84  E(vib)   ...       0.03
freq.     959.13  E(vib)   ...       0.03
freq.     960.89  E(vib)   ...       0.03
freq.     967.87  E(vib)   ...       0.03
freq.     975.17  E(vib)   ...       0.03
freq.     985.49  E(vib)   ...       0.02
freq.     987.14  E(vib)   ...       0.02
freq.     995.87  E(vib)   ...       0.02
freq.    1004.29  E(vib)   ...       0.02
freq.    1019.34  E(vib)   ...       0.02
freq.    1020.48  E(vib)   ...       0.02
freq.    1024.11  E(vib)   ...       0.02
freq.    1024.35  E(vib)   ...       0.02
freq.    1033.45  E(vib)   ...       0.02
freq.    1054.44  E(vib)   ...       0.02
freq.    1063.92  E(vib)   ...       0.02
freq.    1074.36  E(vib)   ...       0.02
freq.    1079.07  E(vib)   ...       0.02
freq.    1087.16  E(vib)   ...       0.02
freq.    1097.16  E(vib)   ...       0.02
freq.    1110.12  E(vib)   ...       0.02
freq.    1114.76  E(vib)   ...       0.01
freq.    1127.07  E(vib)   ...       0.01
freq.    1145.30  E(vib)   ...       0.01
freq.    1162.09  E(vib)   ...       0.01
freq.    1171.70  E(vib)   ...       0.01
freq.    1173.69  E(vib)   ...       0.01
freq.    1184.17  E(vib)   ...       0.01
freq.    1192.54  E(vib)   ...       0.01
freq.    1193.49  E(vib)   ...       0.01
freq.    1207.86  E(vib)   ...       0.01
freq.    1208.91  E(vib)   ...       0.01
freq.    1217.79  E(vib)   ...       0.01
freq.    1231.14  E(vib)   ...       0.01
freq.    1233.46  E(vib)   ...       0.01
freq.    1238.40  E(vib)   ...       0.01
freq.    1241.29  E(vib)   ...       0.01
freq.    1256.04  E(vib)   ...       0.01
freq.    1267.67  E(vib)   ...       0.01
freq.    1275.41  E(vib)   ...       0.01
freq.    1291.14  E(vib)   ...       0.01
freq.    1292.45  E(vib)   ...       0.01
freq.    1294.02  E(vib)   ...       0.01
freq.    1308.48  E(vib)   ...       0.01
freq.    1310.21  E(vib)   ...       0.01
freq.    1317.81  E(vib)   ...       0.01
freq.    1320.99  E(vib)   ...       0.01
freq.    1348.96  E(vib)   ...       0.01
freq.    1361.19  E(vib)   ...       0.01
freq.    1369.26  E(vib)   ...       0.01
freq.    1378.06  E(vib)   ...       0.01
freq.    1393.34  E(vib)   ...       0.00
freq.    1402.90  E(vib)   ...       0.00
freq.    1404.65  E(vib)   ...       0.00
freq.    1410.26  E(vib)   ...       0.00
freq.    1417.08  E(vib)   ...       0.00
freq.    1421.66  E(vib)   ...       0.00
freq.    1423.99  E(vib)   ...       0.00
freq.    1432.39  E(vib)   ...       0.00
freq.    1432.71  E(vib)   ...       0.00
freq.    1436.21  E(vib)   ...       0.00

Rotational constants in cm-1:     0.006435     0.003729     0.003030

                      ***********************HURRAY********************
                      ***********************HURRAY********************
                             ****ORCA TERMINATED NORMALLY****
TOTAL RUN TIME: 0 days 5 hours 44 minutes 48 seconds 356 msec
