                         Program Version 6.1.0  -  RELEASE   -
|  1> # Automatically generated ORCA input
|  2>
|  3> # Number of cores
|  4> %pal nprocs 62 end
|  5> # RAM per core
|  6> %maxcore 4129
|  7>
|  8> ! wB97X-D3
|  9> ! 6-31G**
| 10> ! Opt
| 11> ! NoSym
| 12>
| 13> %geom
| 14>     Constraints
| 15>         {B 11 27 C}
| 16>         {B 27 32 C}
| 17>         {B 23 11 C}
| 18>         {B 23 32 C}
| 19>         {B 11 32 C}
| 20>         {B 23 27 C}
| 21>         {A 11 27 32 C}
| 22>         {A 11 23 32 C}
| 23>     end
| 24> end
| 25> %Output
| 26>   JSONPropFile True
| 27> End
| 28>
| 29>
| 30> *xyz 0 1
| 31> C        -2.23495000     -1.44824000      0.97690000
| 32> C        -1.07095000     -0.72541000      0.63015000
| 33> C        -0.02669000     -1.43321000      0.02758000
| 34> C        -0.09927000     -2.80246000     -0.22444000
| 35> C        -1.24558000     -3.49625000      0.13450000
| 36> C        -2.30963000     -2.82007000      0.72893000
| 37> H         0.88674000     -0.89680000     -0.21551000
| 38> H         0.73793000     -3.32013000     -0.68246000
| 39> H        -1.32366000     -4.56413000     -0.04788000
| 40> H        -3.20488000     -3.37229000      0.99636000
| 41> N        -3.30029000     -0.75641000      1.62935000
| 42> B        -0.87051000      0.81403000      0.96092000
| 43> H         1.94202000      3.87821000     -0.00485000
| 44> H         3.52012000      3.08685000     -0.18651000
| 45> H         2.02499000      2.13347000     -0.27389000
| 46> C         4.10277000      0.76092000      1.23660000
| 47> H         4.99242000      1.39511000      1.16825000
| 48> H         4.40963000     -0.21763000      1.61473000
| 49> H         3.69004000      0.62349000      0.23607000
| 50> C         3.60051000      1.35136000      3.61735000
| 51> H         3.75987000      0.31197000      3.91459000
| 52> H         4.54848000      1.88825000      3.71206000
| 53> H         2.87552000      1.79431000      4.30580000
| 54> C        -0.56853000      0.98464000      2.87602000
| 55> C        -0.69782000     -0.22387000      3.56454000
| 56> C        -1.63249000     -0.20704000      4.60713000
| 57> H        -1.74807000      1.61282000      0.80888000
| 58> H         0.17621000      1.24352000      0.51534000
| 59> C         2.54872000      2.78837000      1.74158000
| 60> C         3.07798000      1.37488000      2.17971000
| 61> O         1.18545000      2.76272000      2.21329000
| 62> O         1.88496000      0.56714000      2.15676000
| 63> B         0.81869000      1.43772000      2.25811000
| 64> C         3.26051000      3.96439000      2.39505000
| 65> H         2.83280000      4.90101000      2.02862000
| 66> H         3.15086000      3.94277000      3.48030000
| 67> H         4.32666000      3.95511000      2.14702000
| 68> C         2.51264000      2.97498000      0.22399000
| 69> H        -0.11681000     -1.09227000      3.27755000
| 70> C        -2.22153000      1.03211000      4.73611000
| 71> H        -1.87656000     -1.05678000      5.23114000
| 72> H        -2.98493000      1.31622000      5.44874000
| 73> S        -1.64065000      2.15774000      3.60861000
| 74> C        -3.92093000      0.42289000      0.99687000
| 75> C        -4.09726000     -1.46979000      2.64890000
| 76> C        -5.17596000     -0.55901000      3.23837000
| 77> C        -3.43454000     -1.81290000      3.46761000
| 78> C        -4.60974000     -2.35308000      2.21816000
| 79> C        -6.13019000     -0.04670000      2.14590000
| 80> H        -4.63846000      0.31132000      3.66999000
| 81> H        -5.74911000     -1.03428000      4.06269000
| 82> C        -5.41487000      0.15821000      0.79683000
| 83> H        -6.55951000      0.90629000      2.52496000
| 84> H        -6.97196000     -0.75032000      1.96672000
| 85> C        -3.49410000      0.59933000     -0.01446000
| 86> C        -3.80102000      1.32555000      1.63327000
| 87> H        -5.93134000      0.94614000      0.20799000
| 88> H        -5.47111000     -0.78772000      0.21188000
| 89> H        -3.61848000     -0.27929000     -0.61234000
| 90> H        -2.45221000      0.82678000      0.07285000
| 91> H        -4.00083000      1.42030000     -0.47720000
| 92> H        -4.25902000      2.16446000      1.15227000
| 93> H        -2.75963000      1.52305000      1.77955000
| 94> H        -4.26892000      1.15854000      2.58094000
| 95> H        -5.25507000     -2.03916000      1.42449000
| 96> H        -5.18790000     -2.83580000      2.97817000
| 97> H        -3.88102000     -3.03704000      1.83597000
| 98> H        -2.67488000     -2.45153000      3.06765000
| 99> H        -4.01034000     -2.35271000      4.19008000
|100> H        -2.97829000     -0.96587000      3.93588000
|101> *
|102>
|103>
|104>                          ****END OF INPUT****
 Total Charge           Charge          ....    0
 Multiplicity           Mult            ....    1
 Number of Electrons    NEL             ....  238
Dispersion correction           -0.053948996
FINAL SINGLE POINT ENERGY     -1627.993656688044
Dispersion correction             ... done (  0.1 sec)
Dispersion correction           -0.053043515
FINAL SINGLE POINT ENERGY     -1628.309576287555
Dispersion correction             ... done (  0.1 sec)
Dispersion correction           -0.052578582
FINAL SINGLE POINT ENERGY     -1628.544266245524
Dispersion correction             ... done (  0.1 sec)
FINAL SINGLE POINT ENERGY     -1628.773567483211
FINAL SINGLE POINT ENERGY     -1628.885821812798
FINAL SINGLE POINT ENERGY     -1628.983171054182
FINAL SINGLE POINT ENERGY     -1629.002163363004
FINAL SINGLE POINT ENERGY     -1629.017212065549
FINAL SINGLE POINT ENERGY     -1629.022857038482
FINAL SINGLE POINT ENERGY     -1629.025629024346
FINAL SINGLE POINT ENERGY     -1629.042665934364
FINAL SINGLE POINT ENERGY     -1629.042700456229
FINAL SINGLE POINT ENERGY     -1629.042728220083
FINAL SINGLE POINT ENERGY     -1629.042749315454
FINAL SINGLE POINT ENERGY     -1629.042763175604
FINAL SINGLE POINT ENERGY     -1629.042774444392
FINAL SINGLE POINT ENERGY     -1629.042782545238
Dispersion correction             ... done (  0.1 sec)
Dispersion correction           -0.049220126
FINAL SINGLE POINT ENERGY     -1629.042786887911
Dispersion correction             ... done (  0.1 sec)
Dispersion correction           -0.049222486
FINAL SINGLE POINT ENERGY     -1629.042788117182
Dispersion correction             ... done (  0.1 sec)
                    ***********************HURRAY********************

CARTESIAN COORDINATES (ANGSTROEM)
---------------------------------
  C     -2.405556   -1.420088    1.059881
  C     -1.137171   -0.840959    1.288029
  C     -0.008026   -1.579890    0.885769
  C     -0.099301   -2.862709    0.361960
  C     -1.351925   -3.446998    0.199910
  C     -2.485555   -2.719739    0.533540
  H      0.975914   -1.128922    1.000326
  H      0.800306   -3.401179    0.075216
  H     -1.447427   -4.449344   -0.208938
  H     -3.469758   -3.146780    0.364917
  N     -3.617811   -0.705580    1.311698
  B     -0.922932    0.599009    1.946485
  H      1.107349    4.174012    0.878679
  H      2.620712    3.732492    0.061718
  H      1.302260    2.552272    0.205462
  C      3.897274    1.316909    0.690251
  H      4.654320    2.088695    0.516975
  H      4.403031    0.348489    0.730499
  H      3.208667    1.302802   -0.156067
  C      4.108536    1.360881    3.186358
  H      4.455595    0.324393    3.184489
  H      4.981749    2.017259    3.130654
  H      3.592606    1.542770    4.133552
  C      0.003159    0.448340    3.651657
  C      0.183051   -0.866256    4.087510
  C     -0.291203   -1.124021    5.383369
  H     -1.855688    1.253219    2.300795
  H     -0.132010    1.262053    1.303473
  C      2.375229    2.919038    2.070695
  C      3.164922    1.564453    2.000567
  O      1.251610    2.571459    2.907563
  O      2.115774    0.581081    2.134930
  B      1.052121    1.218227    2.746974
  C      3.127001    4.062901    2.735870
  H      2.498008    4.956848    2.746203
  H      3.387855    3.822353    3.767807
  H      4.043086    4.298266    2.184377
  C      1.824574    3.365633    0.715967
  H      0.639346   -1.614932    3.450267
  C     -0.814302    0.011290    5.962081
  H     -0.259327   -2.090288    5.870656
  H     -1.253653    0.092865    6.948734
  S     -0.737493    1.364183    4.946472
  C     -4.215658    0.082537    0.204722
  C     -4.386506   -1.020819    2.529482
  C     -5.304389    0.175074    2.829106
  C     -3.425280   -1.171695    3.715141
  C     -5.209462   -2.328142    2.437860
  C     -6.283619    0.503608    1.692906
  H     -4.653013    1.034797    3.022352
  H     -5.851246   -0.018468    3.759245
  C     -5.750289    0.061665    0.323891
  H     -6.483046    1.580711    1.691998
  H     -7.249959    0.018316    1.869824
  C     -3.862007   -0.508428   -1.169957
  C     -3.715184    1.541122    0.218148
  H     -6.165418    0.698870   -0.465158
  H     -6.090270   -0.955135    0.099542
  H     -4.213679   -1.539763   -1.266573
  H     -2.783963   -0.499779   -1.350585
  H     -4.340268    0.088446   -1.953488
  H     -4.180734    2.114563   -0.592114
  H     -2.631379    1.576685    0.077555
  H     -3.937673    2.039400    1.165050
  H     -5.883262   -2.338768    1.578056
  H     -5.814612   -2.462972    3.341726
  H     -4.545540   -3.193782    2.354975
  H     -2.723086   -1.995527    3.560405
  H     -3.988096   -1.375114    4.632502
  H     -2.851250   -0.253133    3.853139

 Multiplicity           Mult            ....    1
 Number of Electrons    NEL             ....  238
 Basis Dimension        Dim             ....  633

ORBITAL ENERGIES
----------------

  NO   OCC          E(Eh)            E(eV)
   0   2.0000     -88.999148     -2421.7899
   1   2.0000     -19.245608      -523.6996
   2   2.0000     -19.244947      -523.6816
   3   2.0000     -14.391762      -391.6198
   4   2.0000     -10.350066      -281.6396
   5   2.0000     -10.349043      -281.6118
   6   2.0000     -10.348759      -281.6040
   7   2.0000     -10.327290      -281.0199
   8   2.0000     -10.315287      -280.6932
   9   2.0000     -10.311282      -280.5842
  10   2.0000     -10.306938      -280.4660
  11   2.0000     -10.306017      -280.4410
  12   2.0000     -10.295300      -280.1493
  13   2.0000     -10.278394      -279.6893
  14   2.0000     -10.277914      -279.6763
  15   2.0000     -10.276905      -279.6488
  16   2.0000     -10.272505      -279.5291
  17   2.0000     -10.270535      -279.4755
  18   2.0000     -10.268756      -279.4271
  19   2.0000     -10.266206      -279.3577
  20   2.0000     -10.264239      -279.3041
  21   2.0000     -10.262689      -279.2620
  22   2.0000     -10.262679      -279.2617
  23   2.0000     -10.261712      -279.2354
  24   2.0000     -10.253386      -279.0088
  25   2.0000     -10.251818      -278.9662
  26   2.0000     -10.251448      -278.9561
  27   2.0000     -10.249963      -278.9157
  28   2.0000     -10.245413      -278.7919
  29   2.0000      -8.094842      -220.2718
  30   2.0000      -6.899017      -187.7318
  31   2.0000      -6.810598      -185.3258
  32   2.0000      -6.048757      -164.5950
  33   2.0000      -6.044106      -164.4685
  34   2.0000      -6.042336      -164.4203
  35   2.0000      -1.176961       -32.0267
  36   2.0000      -1.105593       -30.0847
  37   2.0000      -1.024989       -27.8914
  38   2.0000      -1.021185       -27.7879
  39   2.0000      -0.944825       -25.7100
  40   2.0000      -0.924444       -25.1554
  41   2.0000      -0.905736       -24.6463
  42   2.0000      -0.895565       -24.3696
  43   2.0000      -0.872443       -23.7404
  44   2.0000      -0.865843       -23.5608
  45   2.0000      -0.863427       -23.4950
  46   2.0000      -0.836065       -22.7505
  47   2.0000      -0.834803       -22.7161
  48   2.0000      -0.821796       -22.3622
  49   2.0000      -0.807848       -21.9827
  50   2.0000      -0.792592       -21.5675
  51   2.0000      -0.786006       -21.3883
  52   2.0000      -0.774619       -21.0784
  53   2.0000      -0.770319       -20.9614
  54   2.0000      -0.737208       -20.0604
  55   2.0000      -0.712443       -19.3866
  56   2.0000      -0.702122       -19.1057
  57   2.0000      -0.687516       -18.7083
  58   2.0000      -0.682633       -18.5754
  59   2.0000      -0.670322       -18.2404
  60   2.0000      -0.665215       -18.1014
  61   2.0000      -0.655686       -17.8421
  62   2.0000      -0.646442       -17.5906
  63   2.0000      -0.629713       -17.1354
  64   2.0000      -0.615226       -16.7411
  65   2.0000      -0.591480       -16.0950
  66   2.0000      -0.575289       -15.6544
  67   2.0000      -0.573378       -15.6024
  68   2.0000      -0.571765       -15.5585
  69   2.0000      -0.567532       -15.4433
  70   2.0000      -0.555494       -15.1158
  71   2.0000      -0.546836       -14.8802
  72   2.0000      -0.543959       -14.8019
  73   2.0000      -0.540195       -14.6995
  74   2.0000      -0.535902       -14.5826
  75   2.0000      -0.523229       -14.2378
  76   2.0000      -0.518895       -14.1198
  77   2.0000      -0.514994       -14.0137
  78   2.0000      -0.512073       -13.9342
  79   2.0000      -0.503121       -13.6906
  80   2.0000      -0.500448       -13.6179
  81   2.0000      -0.499891       -13.6027
  82   2.0000      -0.495532       -13.4841
  83   2.0000      -0.493394       -13.4259
  84   2.0000      -0.492755       -13.4085
  85   2.0000      -0.486215       -13.2306
  86   2.0000      -0.482901       -13.1404
  87   2.0000      -0.478581       -13.0228
  88   2.0000      -0.471288       -12.8244
  89   2.0000      -0.469066       -12.7639
  90   2.0000      -0.467768       -12.7286
  91   2.0000      -0.463341       -12.6081
  92   2.0000      -0.461657       -12.5623
  93   2.0000      -0.459784       -12.5114
  94   2.0000      -0.457418       -12.4470
  95   2.0000      -0.453249       -12.3335
  96   2.0000      -0.446100       -12.1390
  97   2.0000      -0.444490       -12.0952
  98   2.0000      -0.441839       -12.0231
  99   2.0000      -0.439050       -11.9472
 100   2.0000      -0.435974       -11.8634
 101   2.0000      -0.429552       -11.6887
 102   2.0000      -0.428184       -11.6515
 103   2.0000      -0.425559       -11.5801
 104   2.0000      -0.420383       -11.4392
 105   2.0000      -0.413632       -11.2555
 106   2.0000      -0.398131       -10.8337
 107   2.0000      -0.397706       -10.8221
 108   2.0000      -0.395974       -10.7750
 109   2.0000      -0.386088       -10.5060
 110   2.0000      -0.380058       -10.3419
 111   2.0000      -0.377779       -10.2799
 112   2.0000      -0.365356        -9.9418
 113   2.0000      -0.360223        -9.8022
 114   2.0000      -0.350441        -9.5360
 115   2.0000      -0.337121        -9.1735
 116   2.0000      -0.307978        -8.3805
 117   2.0000      -0.300092        -8.1659
 118   2.0000      -0.259825        -7.0702
 119   0.0000      -0.004334        -0.1179
 120   0.0000       0.086121         2.3435
 121   0.0000       0.093759         2.5513
 122   0.0000       0.109148         2.9701
 123   0.0000       0.115868         3.1529

MULLIKEN ATOMIC CHARGES
-----------------------
   0 C :    0.127242
   1 C :    0.077828
   2 C :   -0.204077
   3 C :   -0.113577
   4 C :   -0.142123
   5 C :   -0.095411
   6 H :    0.123735
   7 H :    0.107888
   8 H :    0.110953
   9 H :    0.103475
  10 N :   -0.504849
  11 B :    0.025236
  12 H :    0.136654
  13 H :    0.113957
  14 H :    0.139903
  15 C :   -0.354156
  16 H :    0.115411
  17 H :    0.130223
  18 H :    0.135492
  19 C :   -0.353163
  20 H :    0.130712
  21 H :    0.115696
  22 H :    0.129369
  23 C :   -0.516411
  24 C :   -0.001463
  25 C :   -0.099722
  26 H :   -0.052394
  27 H :   -0.066310
  28 C :    0.211060
  29 C :    0.221618
  30 O :   -0.498816
  31 O :   -0.508081
  32 B :    0.709447
  33 C :   -0.354160
  34 H :    0.133731
  35 H :    0.129557
  36 H :    0.114572
  37 C :   -0.353852
  38 H :    0.168424
  39 C :   -0.299972
  40 H :    0.150029
  41 H :    0.182194
  42 S :    0.358085
  43 C :    0.147518
  44 C :    0.149896
  45 C :   -0.198682
  46 C :   -0.322933
  47 C :   -0.328216
  48 C :   -0.232319
  49 H :    0.115689
  50 H :    0.098438
  51 C :   -0.201292
  52 H :    0.113988
  53 H :    0.110618
  54 C :   -0.336128
  55 C :   -0.303706
  56 H :    0.103931
  57 H :    0.102737
  58 H :    0.105941
  59 H :    0.128238
  60 H :    0.104178
  61 H :    0.090646
  62 H :    0.120988
  63 H :    0.107913
  64 H :    0.104167
  65 H :    0.099863
  66 H :    0.110786
  67 H :    0.112851
  68 H :    0.095498
  69 H :    0.115436
Sum of atomic charges:   -0.0000000

LOEWDIN ATOMIC CHARGES
----------------------
   0 C :    0.035181
   1 C :   -0.045833
   2 C :   -0.084031
   3 C :   -0.093291
   4 C :   -0.088289
   5 C :   -0.088916
   6 H :    0.079911
   7 H :    0.073611
   8 H :    0.074740
   9 H :    0.074329
  10 N :   -0.138305
  11 B :   -0.221299
  12 H :    0.085178
  13 H :    0.074985
  14 H :    0.083087
  15 C :   -0.205220
  16 H :    0.076362
  17 H :    0.082333
  18 H :    0.083139
  19 C :   -0.207155
  20 H :    0.081876
  21 H :    0.075108
  22 H :    0.079758
  23 C :   -0.201499
  24 C :    0.023212
  25 C :   -0.123350
  26 H :    0.009818
  27 H :    0.047272
  28 C :    0.090060
  29 C :    0.090693
  30 O :   -0.124763
  31 O :   -0.134291
  32 B :   -0.080402
  33 C :   -0.204804
  34 H :    0.083891
  35 H :    0.080670
  36 H :    0.075838
  37 C :   -0.207142
  38 H :    0.104836
  39 C :   -0.180532
  40 H :    0.092663
  41 H :    0.103931
  42 S :    0.438925
  43 C :    0.039015
  44 C :    0.036588
  45 C :   -0.126623
  46 C :   -0.199304
  47 C :   -0.217735
  48 C :   -0.138772
  49 H :    0.071356
  50 H :    0.067487
  51 C :   -0.127848
  52 H :    0.071344
  53 H :    0.070237
  54 C :   -0.202464
  55 C :   -0.204745
  56 H :    0.070688
  57 H :    0.064908
  58 H :    0.069086
  59 H :    0.078447
  60 H :    0.070199
  61 H :    0.062640
  62 H :    0.080569
  63 H :    0.069444
  64 H :    0.066813
  65 H :    0.067401
  66 H :    0.071411
  67 H :    0.073115
  68 H :    0.066413
  69 H :    0.078050

  Mayer bond orders larger than 0.100000
B(  0-C ,  1-C ) :   1.4115 B(  0-C ,  5-C ) :   1.3896 B(  0-C , 10-N ) :   0.9627
B(  1-C ,  2-C ) :   1.3559 B(  1-C , 11-B ) :   0.9921 B(  2-C ,  3-C ) :   1.4459
B(  2-C ,  6-H ) :   0.9260 B(  3-C ,  4-C ) :   1.4286 B(  3-C ,  7-H ) :   0.9516
B(  4-C ,  5-C ) :   1.4449 B(  4-C ,  8-H ) :   0.9477 B(  5-C ,  9-H ) :   0.9426
B( 10-N , 43-C ) :   0.9403 B( 10-N , 44-C ) :   0.9567 B( 11-B , 23-C ) :   0.3744
B( 11-B , 26-H ) :   0.9452 B( 11-B , 27-H ) :   0.8120 B( 11-B , 32-B ) :   0.1644
B( 12-H , 37-C ) :   0.9557 B( 13-H , 37-C ) :   0.9533 B( 14-H , 37-C ) :   0.9520
B( 15-C , 16-H ) :   0.9559 B( 15-C , 17-H ) :   0.9580 B( 15-C , 18-H ) :   0.9542
B( 15-C , 29-C ) :   1.0048 B( 19-C , 20-H ) :   0.9572 B( 19-C , 21-H ) :   0.9537
B( 19-C , 22-H ) :   0.9570 B( 19-C , 29-C ) :   0.9914 B( 23-C , 24-C ) :   1.4134
B( 23-C , 32-B ) :   0.7612 B( 23-C , 42-S ) :   1.0805 B( 24-C , 25-C ) :   1.3830
B( 24-C , 38-H ) :   0.9234 B( 25-C , 39-C ) :   1.5154 B( 25-C , 40-H ) :   0.9421
B( 27-H , 32-B ) :   0.1414 B( 28-C , 29-C ) :   0.9592 B( 28-C , 30-O ) :   0.8696
B( 28-C , 33-C ) :   1.0069 B( 28-C , 37-C ) :   0.9921 B( 29-C , 31-O ) :   0.8675
B( 30-O , 32-B ) :   1.0832 B( 31-O , 32-B ) :   1.0631 B( 33-C , 34-H ) :   0.9580
B( 33-C , 35-H ) :   0.9551 B( 33-C , 36-H ) :   0.9561 B( 39-C , 41-H ) :   0.9302
B( 39-C , 42-S ) :   1.2572 B( 43-C , 51-C ) :   0.9897 B( 43-C , 54-C ) :   0.9988
B( 43-C , 55-C ) :   0.9826 B( 44-C , 45-C ) :   0.9935 B( 44-C , 46-C ) :   0.9987
B( 44-C , 47-C ) :   0.9703 B( 45-C , 48-C ) :   0.9880 B( 45-C , 49-H ) :   0.9517
B( 45-C , 50-H ) :   0.9562 B( 46-C , 67-H ) :   0.9544 B( 46-C , 68-H ) :   0.9613
B( 46-C , 69-H ) :   0.9494 B( 47-C , 64-H ) :   0.9610 B( 47-C , 65-H ) :   0.9584
B( 47-C , 66-H ) :   0.9606 B( 48-C , 51-C ) :   0.9891 B( 48-C , 52-H ) :   0.9630
B( 48-C , 53-H ) :   0.9626 B( 51-C , 56-H ) :   0.9550 B( 51-C , 57-H ) :   0.9524
B( 54-C , 58-H ) :   0.9600 B( 54-C , 59-H ) :   0.9549 B( 54-C , 60-H ) :   0.9591
B( 55-C , 61-H ) :   0.9569 B( 55-C , 62-H ) :   0.9563 B( 55-C , 63-H ) :   0.9620

Dispersion correction           -0.049223673
FINAL SINGLE POINT ENERGY     -1629.042789190473

DIPOLE MOMENT
-------------

Method             : SCF
Type of density    : Electron Density
Multiplicity       :   1
Irrep              :   0
Energy             : -1628.9935655179203877 Eh
Basis              : AO
                                X                 Y                 Z
Electronic contribution:     11.759717129      -3.367430508      16.786263677
Nuclear contribution   :    -10.767332493       3.387770042     -15.685564969
                        -----------------------------------------
Total Dipole Moment    :      0.992384635       0.020339534       1.100698707
                        -----------------------------------------
Magnitude (a.u.)       :      1.482153368
Magnitude (Debye)      :      3.767334466

Rotational constants in cm-1:             0.007521             0.003142             0.002981
Rotational constants in MHz :           225.464240            94.195856            89.359609

                             ****ORCA TERMINATED NORMALLY****
TOTAL RUN TIME: 0 days 0 hours 42 minutes 39 seconds 478 msec
