                         Program Version 6.1.0  -  RELEASE   -
|  1> # Automatically generated ORCA input
|  2>
|  3> # Number of cores
|  4> %pal nprocs 12 end
|  5> # RAM per core
|  6> %maxcore 2560
|  7>
|  8> ! wB97X-D3
|  9> ! 6-31G**
| 10> ! TightSCF
| 11> ! SlowConv
| 12> ! Opt
| 13> ! Freq
| 14> ! NoSym
| 15>
| 16> %geom
| 17>   Calc_Hess true
| 18> end
| 19> %Output
| 20>   JSONPropFile True
| 21> End
| 22>
| 23>
| 24> *xyz 0 1
| 25> C         0.39866200     -2.00789900      0.96565000
| 26> C         1.37293100     -1.03016300      1.14865700
| 27> C         0.99970900      0.22669800      1.60780900
| 28> C        -0.33474600      0.49489100      1.89846500
| 29> C        -1.30934800     -0.48922500      1.72147700
| 30> C        -0.94919300     -1.75942200      1.23247400
| 31> H         0.69422700     -2.98196800      0.58267800
| 32> H         2.41208800     -1.24534600      0.92122100
| 33> H         1.74645100      1.00221700      1.74827900
| 34> H        -0.61366700      1.47657600      2.26709100
| 35> N        -2.68994400     -0.25217600      2.00225100
| 36> B        -2.06513000     -2.84204800      0.95546600
| 37> H        -2.42087900     -3.62742600      1.78897800
| 38> H        -3.12591800     -2.22202700      0.49217700
| 39> H        -1.79316200     -3.52666800     -0.12323900
| 40> C        -3.14674200      1.11605100      1.84935100
| 41> H        -4.24103100      1.12412600      1.83731000
| 42> H        -2.81959000      1.78642800      2.66362700
| 43> H        -2.78967300      1.52155400      0.90013700
| 44> C        -3.13738600     -0.82718100      3.26484800
| 45> H        -2.73911600     -0.28094300      4.13710100
| 46> H        -4.23083100     -0.79883600      3.31022300
| 47> H        -2.81969000     -1.86861900      3.34257700
| 48> B        -2.88015300     -2.90684100     -0.61682000
| 49> H        -2.48722100     -2.14704600     -1.44840700
| 50> C        -4.06646100     -3.89677700     -0.90853800
| 51> C        -4.31035600     -4.38030400     -2.21562600
| 52> C        -4.98133100     -4.22988400      0.09719700
| 53> C        -5.46362800     -5.13146100     -2.47097400
| 54> C        -6.12228100     -4.98331900     -0.15656600
| 55> H        -4.80904600     -3.86062600      1.10498400
| 56> C        -6.36366500     -5.42326200     -1.45173500
| 57> H        -5.65882200     -5.50565700     -3.46973200
| 58> H        -6.81959400     -5.21055300      0.64307100
| 59> H        -7.25122900     -6.00791700     -1.67480100
| 60> N        -3.39087400     -4.07210000     -3.24732900
| 61> C        -3.87957600     -4.13407400     -4.60876900
| 62> H        -3.16326200     -3.62642600     -5.26200700
| 63> H        -4.00337500     -5.16386800     -4.98914600
| 64> H        -4.83772900     -3.61567500     -4.68704100
| 65> C        -2.07231300     -4.67364900     -3.12818700
| 66> H        -2.06790900     -5.72999700     -3.44851900
| 67> H        -1.35777300     -4.12203200     -3.74719300
| 68> H        -1.71973900     -4.63916100     -2.09722700
| 69> *
| 70>
| 71>
| 72>                          ****END OF INPUT****
 Total Charge           Charge          ....    0
 Multiplicity           Mult            ....    1
 Number of Electrons    NEL             ....  144
Dispersion correction           -0.019815470
FINAL SINGLE POINT ENERGY      -783.147808669659
Dispersion correction             ... done (  0.1 sec)
Dispersion correction           -0.019848735
FINAL SINGLE POINT ENERGY      -783.147817616805
Dispersion correction             ... done (  0.0 sec)
Dispersion correction           -0.019806680
FINAL SINGLE POINT ENERGY      -783.147294261065
Dispersion correction             ... done (  0.0 sec)
FINAL SINGLE POINT ENERGY      -783.140816164694
FINAL SINGLE POINT ENERGY      -783.147175627692
FINAL SINGLE POINT ENERGY      -783.147690867058
FINAL SINGLE POINT ENERGY      -783.147747427799
FINAL SINGLE POINT ENERGY      -783.147763128146
FINAL SINGLE POINT ENERGY      -783.147791502421
FINAL SINGLE POINT ENERGY      -783.147804743934
FINAL SINGLE POINT ENERGY      -783.147808436459
FINAL SINGLE POINT ENERGY      -783.147815986661
FINAL SINGLE POINT ENERGY      -783.147831364484
FINAL SINGLE POINT ENERGY      -783.147842382956
Dispersion correction             ... done (  0.1 sec)
Dispersion correction           -0.019833316
FINAL SINGLE POINT ENERGY      -783.147848325053
Dispersion correction             ... done (  0.0 sec)
Dispersion correction           -0.019832550
FINAL SINGLE POINT ENERGY      -783.147848859354
Dispersion correction             ... done (  0.0 sec)
                    ***********************HURRAY********************

CARTESIAN COORDINATES (ANGSTROEM)
---------------------------------
  C      0.407182   -2.027698    1.002856
  C      1.383394   -1.051606    1.185426
  C      1.009081    0.214194    1.618713
  C     -0.328606    0.492622    1.884356
  C     -1.305657   -0.489409    1.707026
  C     -0.944126   -1.768772    1.243105
  H      0.705704   -3.010393    0.642644
  H      2.425677   -1.275807    0.978239
  H      1.757972    0.988448    1.760745
  H     -0.609237    1.481418    2.234492
  N     -2.688654   -0.240597    1.966727
  B     -2.056425   -2.857608    0.966482
  H     -2.389895   -3.661380    1.793261
  H     -3.130089   -2.243631    0.525028
  H     -1.791026   -3.526664   -0.125795
  C     -3.135473    1.128112    1.791652
  H     -4.229532    1.142396    1.760867
  H     -2.818679    1.807648    2.602348
  H     -2.761915    1.520626    0.842985
  C     -3.156406   -0.801530    3.227812
  H     -2.758581   -0.258668    4.102351
  H     -4.249895   -0.758078    3.262972
  H     -2.854938   -1.847788    3.314379
  B     -2.890059   -2.912529   -0.595149
  H     -2.517675   -2.130324   -1.416976
  C     -4.069123   -3.913797   -0.889350
  C     -4.312459   -4.385514   -2.200532
  C     -4.975424   -4.270150    0.116134
  C     -5.453968   -5.152388   -2.460205
  C     -6.106561   -5.037580   -0.142221
  H     -4.806030   -3.909085    1.128236
  C     -6.345922   -5.468801   -1.440761
  H     -5.646343   -5.518515   -3.463421
  H     -6.798775   -5.282547    0.657649
  H     -7.225616   -6.065360   -1.666944
  N     -3.402707   -4.047775   -3.233490
  C     -3.903703   -4.079488   -4.591407
  H     -3.203990   -3.539160   -5.236854
  H     -4.014311   -5.098992   -5.002279
  H     -4.871036   -3.574617   -4.645240
  C     -2.080250   -4.644028   -3.137473
  H     -2.070279   -5.693176   -3.480875
  H     -1.373313   -4.073429   -3.748563
  H     -1.720645   -4.630616   -2.107708

 Multiplicity           Mult            ....    1
 Number of Electrons    NEL             ....  144
 Basis Dimension        Dim             ....  400

ORBITAL ENERGIES
----------------

  NO   OCC          E(Eh)            E(eV)
   0   2.0000     -14.435558      -392.8115
   1   2.0000     -14.435486      -392.8095
   2   2.0000     -10.317791      -280.7614
   3   2.0000     -10.313739      -280.6511
   4   2.0000     -10.306942      -280.4661
   5   2.0000     -10.304396      -280.3969
   6   2.0000     -10.304351      -280.3957
   7   2.0000     -10.303728      -280.3787
   8   2.0000     -10.285228      -279.8753
   9   2.0000     -10.283076      -279.8167
  10   2.0000     -10.283046      -279.8159
  11   2.0000     -10.282486      -279.8007
  12   2.0000     -10.279685      -279.7245
  13   2.0000     -10.278542      -279.6933
  14   2.0000     -10.277895      -279.6757
  15   2.0000     -10.276481      -279.6373
  16   2.0000     -10.267569      -279.3948
  17   2.0000     -10.265919      -279.3499
  18   2.0000      -6.850432      -186.4097
  19   2.0000      -6.849628      -186.3878
  20   2.0000      -1.052084       -28.6287
  21   2.0000      -1.050428       -28.5836
  22   2.0000      -0.955259       -25.9939
  23   2.0000      -0.954841       -25.9826
  24   2.0000      -0.860533       -23.4163
  25   2.0000      -0.854281       -23.2462
  26   2.0000      -0.851473       -23.1698
  27   2.0000      -0.850283       -23.1374
  28   2.0000      -0.822036       -22.3687
  29   2.0000      -0.820724       -22.3330
  30   2.0000      -0.771302       -20.9882
  31   2.0000      -0.754798       -20.5391
  32   2.0000      -0.747860       -20.3503
  33   2.0000      -0.705456       -19.1964
  34   2.0000      -0.694394       -18.8954
  35   2.0000      -0.676186       -18.4000
  36   2.0000      -0.669600       -18.2207
  37   2.0000      -0.621243       -16.9049
  38   2.0000      -0.611888       -16.6503
  39   2.0000      -0.574402       -15.6303
  40   2.0000      -0.570652       -15.5282
  41   2.0000      -0.568004       -15.4562
  42   2.0000      -0.563279       -15.3276
  43   2.0000      -0.559226       -15.2173
  44   2.0000      -0.556401       -15.1404
  45   2.0000      -0.542886       -14.7727
  46   2.0000      -0.529648       -14.4125
  47   2.0000      -0.526672       -14.3315
  48   2.0000      -0.517026       -14.0690
  49   2.0000      -0.512633       -13.9495
  50   2.0000      -0.501784       -13.6542
  51   2.0000      -0.495466       -13.4823
  52   2.0000      -0.490175       -13.3383
  53   2.0000      -0.485498       -13.2111
  54   2.0000      -0.481071       -13.0906
  55   2.0000      -0.474474       -12.9111
  56   2.0000      -0.472498       -12.8573
  57   2.0000      -0.463030       -12.5997
  58   2.0000      -0.459359       -12.4998
  59   2.0000      -0.455529       -12.3956
  60   2.0000      -0.452191       -12.3047
  61   2.0000      -0.438111       -11.9216
  62   2.0000      -0.427872       -11.6430
  63   2.0000      -0.420113       -11.4319
  64   2.0000      -0.416422       -11.3314
  65   2.0000      -0.392862       -10.6903
  66   2.0000      -0.350469        -9.5367
  67   2.0000      -0.344540        -9.3754
  68   2.0000      -0.325977        -8.8703
  69   2.0000      -0.323329        -8.7982
  70   2.0000      -0.287382        -7.8201
  71   2.0000      -0.279488        -7.6053
  72   0.0000       0.045877         1.2484
  73   0.0000       0.078158         2.1268
  74   0.0000       0.087152         2.3715
  75   0.0000       0.089929         2.4471
  76   0.0000       0.114228         3.1083

MULLIKEN ATOMIC CHARGES
-----------------------
   0 C :   -0.169181
   1 C :   -0.108998
   2 C :   -0.138162
   3 C :   -0.123994
   4 C :    0.168131
   5 C :    0.029107
   6 H :    0.105036
   7 H :    0.114973
   8 H :    0.118014
   9 H :    0.109762
  10 N :   -0.479594
  11 B :    0.029295
  12 H :   -0.023413
  13 H :    0.047254
  14 H :   -0.002936
  15 C :   -0.205121
  16 H :    0.127327
  17 H :    0.095993
  18 H :    0.138957
  19 C :   -0.203047
  20 H :    0.104939
  21 H :    0.123264
  22 H :    0.138468
  23 B :    0.019986
  24 H :    0.006896
  25 C :    0.015864
  26 C :    0.190249
  27 C :   -0.158416
  28 C :   -0.133780
  29 C :   -0.115332
  30 H :    0.107155
  31 C :   -0.133470
  32 H :    0.109742
  33 H :    0.114528
  34 H :    0.118721
  35 N :   -0.455898
  36 C :   -0.206325
  37 H :    0.127880
  38 H :    0.096922
  39 H :    0.137991
  40 C :   -0.193586
  41 H :    0.105103
  42 H :    0.129139
  43 H :    0.120554
Sum of atomic charges:   -0.0000000

LOEWDIN ATOMIC CHARGES
----------------------
   0 C :   -0.067898
   1 C :   -0.091238
   2 C :   -0.075864
   3 C :   -0.102858
   4 C :    0.033504
   5 C :   -0.045975
   6 H :    0.073886
   7 H :    0.077420
   8 H :    0.078160
   9 H :    0.077610
  10 N :   -0.146767
  11 B :   -0.198873
  12 H :    0.018664
  13 H :    0.181031
  14 H :    0.159939
  15 C :   -0.127747
  16 H :    0.075418
  17 H :    0.049968
  18 H :    0.081006
  19 C :   -0.120495
  20 H :    0.055199
  21 H :    0.072079
  22 H :    0.082826
  23 B :   -0.171304
  24 H :    0.032882
  25 C :   -0.067281
  26 C :    0.048156
  27 C :   -0.055116
  28 C :   -0.112985
  29 C :   -0.101262
  30 H :    0.076492
  31 C :   -0.066117
  32 H :    0.077592
  33 H :    0.077160
  34 H :    0.078567
  35 N :   -0.128760
  36 C :   -0.127123
  37 H :    0.076078
  38 H :    0.050399
  39 H :    0.080628
  40 C :   -0.114345
  41 H :    0.055547
  42 H :    0.074288
  43 H :    0.077508

  Mayer bond orders larger than 0.100000
B(  0-C ,  1-C ) :   1.4316 B(  0-C ,  5-C ) :   1.4178 B(  0-C ,  6-H ) :   0.9468
B(  1-C ,  2-C ) :   1.4576 B(  1-C ,  7-H ) :   0.9495 B(  2-C ,  3-C ) :   1.4291
B(  2-C ,  8-H ) :   0.9473 B(  3-C ,  4-C ) :   1.4135 B(  3-C ,  9-H ) :   0.9413
B(  4-C ,  5-C ) :   1.4150 B(  4-C , 10-N ) :   0.9568 B(  5-C , 11-B ) :   0.9953
B( 10-N , 15-C ) :   0.9752 B( 10-N , 19-C ) :   0.9553 B( 11-B , 12-H ) :   0.9512
B( 11-B , 13-H ) :   0.4894 B( 11-B , 14-H ) :   0.4944 B( 11-B , 23-B ) :   0.4982
B( 13-H , 23-B ) :   0.4480 B( 14-H , 23-B ) :   0.4428 B( 15-C , 16-H ) :   0.9624
B( 15-C , 17-H ) :   0.9432 B( 15-C , 18-H ) :   0.9624 B( 19-C , 20-H ) :   0.9490
B( 19-C , 21-H ) :   0.9618 B( 19-C , 22-H ) :   0.9548 B( 23-B , 24-H ) :   0.9681
B( 23-B , 25-C ) :   1.0133 B( 25-C , 26-C ) :   1.3736 B( 25-C , 27-C ) :   1.4144
B( 26-C , 28-C ) :   1.4036 B( 26-C , 35-N ) :   0.9912 B( 27-C , 29-C ) :   1.4334
B( 27-C , 30-H ) :   0.9415 B( 28-C , 31-C ) :   1.4311 B( 28-C , 32-H ) :   0.9407
B( 29-C , 31-C ) :   1.4515 B( 29-C , 33-H ) :   0.9495 B( 31-C , 34-H ) :   0.9471
B( 35-N , 36-C ) :   0.9774 B( 35-N , 40-C ) :   0.9577 B( 36-C , 37-H ) :   0.9619
B( 36-C , 38-H ) :   0.9413 B( 36-C , 39-H ) :   0.9610 B( 40-C , 41-H ) :   0.9486
B( 40-C , 42-H ) :   0.9607 B( 40-C , 43-H ) :   0.9602

Dispersion correction           -0.019836355
FINAL SINGLE POINT ENERGY      -783.147850260418

DIPOLE MOMENT
-------------

Method             : SCF
Type of density    : Electron Density
Multiplicity       :   1
Irrep              :   0
Energy             :  -783.1280139055570544 Eh
Basis              : AO
                                X                 Y                 Z
Electronic contribution:      1.629703443      -2.313513943       2.549740858
Nuclear contribution   :     -1.704879547       2.371197021      -2.713915046
                        -----------------------------------------
Total Dipole Moment    :     -0.075176105       0.057683077      -0.164174188
                        -----------------------------------------
Magnitude (a.u.)       :      0.189557243
Magnitude (Debye)      :      0.481816220

VIBRATIONAL FREQUENCIES
-----------------------

Scaling factor for frequencies =  1.000000000  (already applied!)

     0:       0.00 cm**-1
     1:       0.00 cm**-1
     2:       0.00 cm**-1
     3:       0.00 cm**-1
     4:       0.00 cm**-1
     5:       0.00 cm**-1
     6:       8.78 cm**-1
     7:      30.59 cm**-1
     8:      37.01 cm**-1
     9:      50.92 cm**-1
    10:      70.24 cm**-1
    11:      75.10 cm**-1
    12:     100.56 cm**-1
    13:     121.43 cm**-1
    14:     130.76 cm**-1
    15:     156.69 cm**-1
    16:     187.51 cm**-1
    17:     196.09 cm**-1
    18:     217.91 cm**-1
    19:     250.47 cm**-1
    20:     257.52 cm**-1
    21:     285.31 cm**-1
    22:     290.00 cm**-1
    23:     309.03 cm**-1
    24:     316.31 cm**-1
    25:     338.67 cm**-1
    26:     361.41 cm**-1
    27:     376.69 cm**-1
    28:     385.85 cm**-1
    29:     461.10 cm**-1
    30:     464.40 cm**-1
    31:     487.17 cm**-1
    32:     506.24 cm**-1
    33:     526.73 cm**-1
    34:     548.95 cm**-1
    35:     574.32 cm**-1
    36:     577.35 cm**-1
    37:     588.51 cm**-1
    38:     617.48 cm**-1
    39:     715.43 cm**-1
    40:     733.81 cm**-1
    41:     743.12 cm**-1
    42:     761.12 cm**-1
    43:     772.63 cm**-1
    44:     792.11 cm**-1
    45:     800.68 cm**-1
    46:     813.48 cm**-1
    47:     824.79 cm**-1
    48:     851.68 cm**-1
    49:     885.79 cm**-1
    50:     899.77 cm**-1
    51:     907.77 cm**-1
    52:     944.22 cm**-1
    53:     975.46 cm**-1
    54:     979.77 cm**-1
    55:     995.37 cm**-1
    56:     998.23 cm**-1
    57:    1011.45 cm**-1
    58:    1011.90 cm**-1
    59:    1055.98 cm**-1
    60:    1069.31 cm**-1
    61:    1084.57 cm**-1
    62:    1088.36 cm**-1
    63:    1089.10 cm**-1
    64:    1093.29 cm**-1
    65:    1097.00 cm**-1
    66:    1128.36 cm**-1
    67:    1129.08 cm**-1
    68:    1138.81 cm**-1
    69:    1150.85 cm**-1
    70:    1180.81 cm**-1
    71:    1189.55 cm**-1
    72:    1193.02 cm**-1
    73:    1195.57 cm**-1
    74:    1200.33 cm**-1
    75:    1201.14 cm**-1
    76:    1232.19 cm**-1
    77:    1250.85 cm**-1
    78:    1270.50 cm**-1
    79:    1277.30 cm**-1
    80:    1316.44 cm**-1
    81:    1320.65 cm**-1
    82:    1336.71 cm**-1
    83:    1342.02 cm**-1
    84:    1375.89 cm**-1
    85:    1389.93 cm**-1
    86:    1456.61 cm**-1
    87:    1459.50 cm**-1
    88:    1482.47 cm**-1
    89:    1485.43 cm**-1
    90:    1492.93 cm**-1
    91:    1496.72 cm**-1
    92:    1501.80 cm**-1
    93:    1502.75 cm**-1
    94:    1509.65 cm**-1
    95:    1510.95 cm**-1
    96:    1515.97 cm**-1
    97:    1519.58 cm**-1
    98:    1536.86 cm**-1
    99:    1537.95 cm**-1
   100:    1552.74 cm**-1
   101:    1553.80 cm**-1
   102:    1656.97 cm**-1
   103:    1662.28 cm**-1
   104:    1668.03 cm**-1
   105:    1692.27 cm**-1
   106:    1695.51 cm**-1
   107:    1814.53 cm**-1
   108:    2039.86 cm**-1
   109:    2175.25 cm**-1
   110:    2620.57 cm**-1
   111:    2678.53 cm**-1
   112:    2985.54 cm**-1
   113:    2990.14 cm**-1
   114:    2995.36 cm**-1
   115:    3000.08 cm**-1
   116:    3108.60 cm**-1
   117:    3109.32 cm**-1
   118:    3111.02 cm**-1
   119:    3112.91 cm**-1
   120:    3168.16 cm**-1
   121:    3169.65 cm**-1
   122:    3172.70 cm**-1
   123:    3185.51 cm**-1
   124:    3192.48 cm**-1
   125:    3200.81 cm**-1
   126:    3211.67 cm**-1
   127:    3212.15 cm**-1
   128:    3228.40 cm**-1
   129:    3231.99 cm**-1
   130:    3237.51 cm**-1
   131:    3241.46 cm**-1

IR SPECTRUM
-----------

 Mode   freq       eps      Int      T**2         TX        TY        TZ
       cm**-1   L/(mol*cm) km/mol    a.u.
----------------------------------------------------------------------------
  6:      8.78   0.000038    0.19  0.001336  ( 0.020857 -0.021112  0.021346)
  7:     30.59   0.000019    0.10  0.000193  ( 0.007475  0.005671 -0.010247)
  8:     37.01   0.000033    0.17  0.000278  ( 0.007847 -0.009272  0.011429)
  9:     50.92   0.000148    0.75  0.000906  ( 0.028156  0.010587 -0.000890)
 10:     70.24   0.000293    1.48  0.001303  (-0.032400 -0.015766 -0.002126)
 11:     75.10   0.000128    0.64  0.000530  ( 0.009878  0.003785 -0.020453)
 12:    100.56   0.000127    0.64  0.000396  ( 0.011605 -0.001879 -0.016041)
 13:    121.43   0.000115    0.58  0.000295  ( 0.008370 -0.007409  0.013023)
 14:    130.76   0.000154    0.78  0.000368  (-0.006154 -0.018162 -0.000021)
 15:    156.69   0.000105    0.53  0.000208  (-0.012169 -0.007738 -0.000621)
 16:    187.51   0.000065    0.33  0.000108  ( 0.004424  0.009347 -0.001236)
 17:    196.09   0.000052    0.26  0.000083  ( 0.002174  0.000600  0.008813)
 18:    217.91   0.000384    1.94  0.000550  (-0.003002 -0.018238  0.014435)
 19:    250.47   0.000596    3.01  0.000743  ( 0.004321 -0.022355  0.014990)
 20:    257.52   0.000217    1.10  0.000263  ( 0.009304  0.013270  0.000653)
 21:    285.31   0.000026    0.13  0.000028  (-0.005267  0.000342 -0.000757)
 22:    290.00   0.000477    2.41  0.000513  ( 0.016189  0.015615  0.002724)
 23:    309.03   0.000167    0.84  0.000169  ( 0.004429  0.004877  0.011192)
 24:    316.31   0.000218    1.10  0.000216  ( 0.008231  0.012156  0.000003)
 25:    338.67   0.000089    0.45  0.000082  ( 0.002050  0.008792 -0.000362)
 26:    361.41   0.000419    2.12  0.000362  (-0.016152 -0.007565  0.006614)
 27:    376.69   0.000248    1.25  0.000205  (-0.005206 -0.012507 -0.004683)
 28:    385.85   0.001934    9.77  0.001564  (-0.013506 -0.027867 -0.024598)
 29:    461.10   0.000449    2.27  0.000304  (-0.012100 -0.004539 -0.011713)
 30:    464.40   0.002021   10.21  0.001358  ( 0.011362  0.035040  0.001060)
 31:    487.17   0.003103   15.68  0.001987  ( 0.028604  0.029087  0.017976)
 32:    506.24   0.001103    5.57  0.000680  (-0.012656  0.006898 -0.021729)
 33:    526.73   0.002510   12.68  0.001487  ( 0.013562  0.032568  0.015562)
 34:    548.95   0.000269    1.36  0.000153  (-0.005312 -0.002424 -0.010907)
 35:    574.32   0.000779    3.93  0.000423  (-0.013859  0.013844 -0.006271)
 36:    577.35   0.000678    3.43  0.000367  (-0.002215  0.008620 -0.016955)
 37:    588.51   0.001254    6.34  0.000665  (-0.011359 -0.010389 -0.020682)
 38:    617.48   0.000179    0.91  0.000091  (-0.004251 -0.004746 -0.007078)
 39:    715.43   0.000744    3.76  0.000325  ( 0.015450 -0.006466  0.006642)
 40:    733.81   0.004177   21.11  0.001776  ( 0.017142 -0.000197  0.038504)
 41:    743.12   0.002093   10.57  0.000879  ( 0.017190 -0.000895  0.024134)
 42:    761.12   0.004725   23.88  0.001937  ( 0.023280 -0.009451  0.036137)
 43:    772.63   0.000991    5.01  0.000400  (-0.018219  0.006930 -0.004522)
 44:    792.11   0.005621   28.41  0.002215  (-0.016963  0.043042  0.008609)
 45:    800.68   0.004393   22.20  0.001712  (-0.002131  0.018089 -0.037152)
 46:    813.48   0.004235   21.40  0.001625  ( 0.023273  0.019409  0.026574)
 47:    824.79   0.002749   13.89  0.001040  ( 0.018566  0.023421  0.012118)
 48:    851.68   0.009446   47.74  0.003461  (-0.031460 -0.034664 -0.035634)
 49:    885.79   0.000385    1.95  0.000136  ( 0.007629  0.006048  0.006389)
 50:    899.77   0.000307    1.55  0.000107  (-0.007365  0.002999 -0.006582)
 51:    907.77   0.000775    3.92  0.000266  ( 0.002528  0.007663  0.014189)
 52:    944.22   0.001802    9.11  0.000596  ( 0.014789 -0.016022 -0.010967)
 53:    975.46   0.000108    0.55  0.000035  ( 0.001684 -0.003254  0.004607)
 54:    979.77   0.000098    0.50  0.000031  ( 0.000509 -0.005568  0.000260)
 55:    995.37   0.006133   30.99  0.001923  (-0.022276  0.022428  0.030391)
 56:    998.23   0.006635   33.53  0.002074  ( 0.020976 -0.016923 -0.036714)
 57:   1011.45   0.000016    0.08  0.000005  (-0.000862  0.001375  0.001505)
 58:   1011.90   0.000093    0.47  0.000029  (-0.001294 -0.000261 -0.005190)
 59:   1055.98   0.006601   33.36  0.001951  (-0.026876 -0.023704 -0.025820)
 60:   1069.31   0.002840   14.35  0.000829  ( 0.016538  0.012051  0.020249)
 61:   1084.57   0.006330   31.99  0.001821  ( 0.026523  0.023665  0.023621)
 62:   1088.36   0.000793    4.01  0.000227  (-0.014843 -0.000129 -0.002645)
 63:   1089.10   0.002480   12.53  0.000711  (-0.007081  0.006707 -0.024811)
 64:   1093.29   0.003808   19.24  0.001087  ( 0.005154 -0.017556 -0.027424)
 65:   1097.00   0.003457   17.47  0.000983  ( 0.015103  0.025728  0.009663)
 66:   1128.36   0.000714    3.61  0.000197  (-0.000500  0.009740 -0.010113)
 67:   1129.08   0.000545    2.75  0.000151  ( 0.011294 -0.004787 -0.000282)
 68:   1138.81   0.007240   36.59  0.001984  (-0.043304 -0.009678  0.003894)
 69:   1150.85   0.002400   12.13  0.000651  (-0.023928 -0.005064  0.007245)
 70:   1180.81   0.003339   16.88  0.000883  ( 0.003012  0.008916 -0.028177)
 71:   1189.55   0.000397    2.01  0.000104  (-0.007906 -0.000375 -0.006439)
 72:   1193.02   0.000844    4.27  0.000221  ( 0.006124 -0.010586 -0.008439)
 73:   1195.57   0.001279    6.47  0.000334  ( 0.001724 -0.007281 -0.016672)
 74:   1200.33   0.004139   20.92  0.001076  ( 0.030374 -0.000666 -0.012373)
 75:   1201.14   0.001331    6.72  0.000346  (-0.005575  0.004642 -0.017119)
 76:   1232.19   0.021810  110.22  0.005524  (-0.045378 -0.045755 -0.037026)
 77:   1250.85   0.005824   29.43  0.001453  ( 0.022336 -0.009369  0.029434)
 78:   1270.50   0.001252    6.33  0.000308  ( 0.000942  0.001116  0.017478)
 79:   1277.30   0.003519   17.79  0.000860  (-0.002325 -0.026616  0.012084)
 80:   1316.44   0.002651   13.40  0.000628  ( 0.022297  0.011454  0.000275)
 81:   1320.65   0.002070   10.46  0.000489  (-0.020060 -0.008705 -0.003327)
 82:   1336.71   0.001105    5.58  0.000258  ( 0.002082  0.015403  0.004051)
 83:   1342.02   0.001962    9.91  0.000456  ( 0.018037  0.004147  0.010659)
 84:   1375.89   0.005880   29.72  0.001334  (-0.022584  0.018007  0.022348)
 85:   1389.93   0.010051   50.79  0.002257  ( 0.021209 -0.010377 -0.041220)
 86:   1456.61   0.000077    0.39  0.000017  ( 0.001797  0.000421 -0.003628)
 87:   1459.50   0.000266    1.35  0.000057  ( 0.004655  0.001168  0.005825)
 88:   1482.47   0.003844   19.43  0.000809  (-0.010163  0.005396  0.026017)
 89:   1485.43   0.001823    9.21  0.000383  (-0.015405  0.006830  0.009953)
 90:   1492.93   0.002063   10.43  0.000431  (-0.019524 -0.004702 -0.005288)
 91:   1496.72   0.001080    5.46  0.000225  ( 0.003995  0.014375 -0.001595)
 92:   1501.80   0.001923    9.72  0.000400  (-0.013892  0.014321 -0.001237)
 93:   1502.75   0.006647   33.59  0.001380  ( 0.027036  0.000042 -0.025481)
 94:   1509.65   0.006807   34.40  0.001407  ( 0.009237  0.016838 -0.032220)
 95:   1510.95   0.002183   11.03  0.000451  ( 0.020860  0.003961 -0.000331)
 96:   1515.97   0.001163    5.88  0.000239  (-0.007572  0.013480  0.000525)
 97:   1519.58   0.003400   17.18  0.000698  (-0.014892  0.007147 -0.020626)
 98:   1536.86   0.003131   15.82  0.000636  (-0.015743 -0.007754 -0.018107)
 99:   1537.95   0.000168    0.85  0.000034  ( 0.004452 -0.000970 -0.003659)
100:   1552.74   0.030226  152.75  0.006075  ( 0.026696 -0.031518 -0.066095)
101:   1553.80   0.010264   51.87  0.002061  (-0.019143  0.001586 -0.041139)
102:   1656.97   0.142174  718.49  0.026776  (-0.100123 -0.070719 -0.108400)
103:   1662.28   0.008896   44.96  0.001670  (-0.027376 -0.021736 -0.021169)
104:   1668.03   0.074325  375.61  0.013905  ( 0.089830  0.037520  0.066542)
105:   1692.27   0.010256   51.83  0.001891  ( 0.025410  0.005077 -0.034925)
106:   1695.51   0.019594   99.02  0.003606  (-0.047248 -0.016858 -0.033011)
107:   1814.53   0.008113   41.00  0.001395  (-0.015711 -0.012574 -0.031470)
108:   2039.86   0.002052   10.37  0.000314  ( 0.007574 -0.012755 -0.009687)
109:   2175.25   0.008560   43.26  0.001228  ( 0.012395  0.024345  0.021949)
110:   2620.57   0.017444   88.15  0.002077  ( 0.012309  0.031097 -0.030963)
111:   2678.53   0.010511   53.12  0.001225  (-0.012442 -0.025123  0.020943)
112:   2985.54   0.014778   74.68  0.001545  (-0.010885 -0.017440 -0.033496)
113:   2990.14   0.013553   68.49  0.001414  ( 0.003086 -0.036120 -0.010013)
114:   2995.36   0.022765  115.04  0.002372  ( 0.023341 -0.034989 -0.024549)
115:   3000.08   0.020089  101.52  0.002090  ( 0.006427 -0.014166 -0.042984)
116:   3108.60   0.007680   38.81  0.000771  ( 0.006137  0.020397 -0.017814)
117:   3109.32   0.007914   40.00  0.000794  ( 0.024484 -0.004862  0.013084)
118:   3111.02   0.005086   25.70  0.000510  (-0.019948 -0.010542 -0.001068)
119:   3112.91   0.005951   30.07  0.000597  (-0.019429 -0.014531  0.002819)
120:   3168.16   0.003447   17.42  0.000340  ( 0.016895 -0.004586 -0.005753)
121:   3169.65   0.002861   14.46  0.000282  (-0.009584 -0.004861  0.012891)
122:   3172.70   0.004067   20.55  0.000400  (-0.014990  0.012427  0.004574)
123:   3185.51   0.004929   24.91  0.000483  (-0.000293  0.000528 -0.021967)
124:   3192.48   0.002514   12.70  0.000246  (-0.003079  0.014526  0.005027)
125:   3200.81   0.001575    7.96  0.000154  ( 0.002421  0.004842  0.011148)
126:   3211.67   0.001149    5.80  0.000112  (-0.004961 -0.009177 -0.001668)
127:   3212.15   0.002030   10.26  0.000197  ( 0.009822  0.007642  0.006507)
128:   3228.40   0.004908   24.80  0.000474  ( 0.017309 -0.012098 -0.005334)
129:   3231.99   0.005254   26.55  0.000507  (-0.011969 -0.003422  0.018770)
130:   3237.51   0.004580   23.14  0.000441  (-0.016471 -0.012568 -0.003489)
131:   3241.46   0.003413   17.25  0.000329  ( 0.013296  0.009869  0.007379)

--------------------------
THERMOCHEMISTRY AT 298.15K
--------------------------

Temperature         ...   298.15 K
Pressure            ...     1.00 atm
Total Mass          ...   266.00 AMU
Quasi RRHO          ...     True
Cut-Off Frequency   ...     1.00 cm^-1

Throughout the following assumptions are being made:
  (1) The electronic state is orbitally nondegenerate
  (2) There are no thermally accessible electronically excited states
  (3) Hindered rotations indicated by low frequency modes are not
      treated as such but are treated as vibrations and this may
      cause some error
  (4) All equations used are the standard statistical mechanics
      equations for an ideal gas
  (5) All vibrations are strictly harmonic

freq.       8.78  E(vib)   ...       0.58
freq.      30.59  E(vib)   ...       0.55
freq.      37.01  E(vib)   ...       0.54
freq.      50.92  E(vib)   ...       0.52
freq.      70.24  E(vib)   ...       0.50
freq.      75.10  E(vib)   ...       0.49
freq.     100.56  E(vib)   ...       0.46
freq.     121.43  E(vib)   ...       0.44
freq.     130.76  E(vib)   ...       0.43
freq.     156.69  E(vib)   ...       0.40
freq.     187.51  E(vib)   ...       0.36
freq.     196.09  E(vib)   ...       0.36
freq.     217.91  E(vib)   ...       0.33
freq.     250.47  E(vib)   ...       0.30
freq.     257.52  E(vib)   ...       0.30
freq.     285.31  E(vib)   ...       0.28
freq.     290.00  E(vib)   ...       0.27
freq.     309.03  E(vib)   ...       0.26
freq.     316.31  E(vib)   ...       0.25
freq.     338.67  E(vib)   ...       0.23
freq.     361.41  E(vib)   ...       0.22
freq.     376.69  E(vib)   ...       0.21
freq.     385.85  E(vib)   ...       0.20
freq.     461.10  E(vib)   ...       0.16
freq.     464.40  E(vib)   ...       0.16
freq.     487.17  E(vib)   ...       0.15
freq.     506.24  E(vib)   ...       0.14
freq.     526.73  E(vib)   ...       0.13
freq.     548.95  E(vib)   ...       0.12
freq.     574.32  E(vib)   ...       0.11
freq.     577.35  E(vib)   ...       0.11
freq.     588.51  E(vib)   ...       0.10
freq.     617.48  E(vib)   ...       0.09
freq.     715.43  E(vib)   ...       0.07
freq.     733.81  E(vib)   ...       0.06
freq.     743.12  E(vib)   ...       0.06
freq.     761.12  E(vib)   ...       0.06
freq.     772.63  E(vib)   ...       0.05
freq.     792.11  E(vib)   ...       0.05
freq.     800.68  E(vib)   ...       0.05
freq.     813.48  E(vib)   ...       0.05
freq.     824.79  E(vib)   ...       0.04
freq.     851.68  E(vib)   ...       0.04
freq.     885.79  E(vib)   ...       0.04
freq.     899.77  E(vib)   ...       0.03
freq.     907.77  E(vib)   ...       0.03
freq.     944.22  E(vib)   ...       0.03
freq.     975.46  E(vib)   ...       0.03
freq.     979.77  E(vib)   ...       0.02
freq.     995.37  E(vib)   ...       0.02
freq.     998.23  E(vib)   ...       0.02
freq.    1011.45  E(vib)   ...       0.02
freq.    1011.90  E(vib)   ...       0.02
freq.    1055.98  E(vib)   ...       0.02
freq.    1069.31  E(vib)   ...       0.02
freq.    1084.57  E(vib)   ...       0.02
freq.    1088.36  E(vib)   ...       0.02
freq.    1089.10  E(vib)   ...       0.02
freq.    1093.29  E(vib)   ...       0.02
freq.    1097.00  E(vib)   ...       0.02
freq.    1128.36  E(vib)   ...       0.01
freq.    1129.08  E(vib)   ...       0.01
freq.    1138.81  E(vib)   ...       0.01
freq.    1150.85  E(vib)   ...       0.01
freq.    1180.81  E(vib)   ...       0.01
freq.    1189.55  E(vib)   ...       0.01
freq.    1193.02  E(vib)   ...       0.01
freq.    1195.57  E(vib)   ...       0.01
freq.    1200.33  E(vib)   ...       0.01
freq.    1201.14  E(vib)   ...       0.01
freq.    1232.19  E(vib)   ...       0.01
freq.    1250.85  E(vib)   ...       0.01
freq.    1270.50  E(vib)   ...       0.01
freq.    1277.30  E(vib)   ...       0.01
freq.    1316.44  E(vib)   ...       0.01
freq.    1320.65  E(vib)   ...       0.01
freq.    1336.71  E(vib)   ...       0.01
freq.    1342.02  E(vib)   ...       0.01
freq.    1375.89  E(vib)   ...       0.01
freq.    1389.93  E(vib)   ...       0.00
freq.    1456.61  E(vib)   ...       0.00
freq.    1459.50  E(vib)   ...       0.00
freq.    1482.47  E(vib)   ...       0.00
freq.    1485.43  E(vib)   ...       0.00
freq.    1492.93  E(vib)   ...       0.00
freq.    1496.72  E(vib)   ...       0.00
freq.    1501.80  E(vib)   ...       0.00
freq.    1502.75  E(vib)   ...       0.00
freq.    1509.65  E(vib)   ...       0.00
freq.    1510.95  E(vib)   ...       0.00
freq.    1515.97  E(vib)   ...       0.00
freq.    1519.58  E(vib)   ...       0.00
freq.    1536.86  E(vib)   ...       0.00
freq.    1537.95  E(vib)   ...       0.00
freq.    1552.74  E(vib)   ...       0.00
freq.    1553.80  E(vib)   ...       0.00
freq.    1656.97  E(vib)   ...       0.00
freq.    1662.28  E(vib)   ...       0.00
freq.    1668.03  E(vib)   ...       0.00
freq.    1692.27  E(vib)   ...       0.00
freq.    1695.51  E(vib)   ...       0.00
freq.    1814.53  E(vib)   ...       0.00
freq.    2039.86  E(vib)   ...       0.00
freq.    2175.25  E(vib)   ...       0.00
freq.    2620.57  E(vib)   ...       0.00
freq.    2678.53  E(vib)   ...       0.00
freq.    2985.54  E(vib)   ...       0.00
freq.    2990.14  E(vib)   ...       0.00
freq.    2995.36  E(vib)   ...       0.00
freq.    3000.08  E(vib)   ...       0.00
freq.    3108.60  E(vib)   ...       0.00
freq.    3109.32  E(vib)   ...       0.00
freq.    3111.02  E(vib)   ...       0.00
freq.    3112.91  E(vib)   ...       0.00
freq.    3168.16  E(vib)   ...       0.00
freq.    3169.65  E(vib)   ...       0.00
freq.    3172.70  E(vib)   ...       0.00
freq.    3185.51  E(vib)   ...       0.00
freq.    3192.48  E(vib)   ...       0.00
freq.    3200.81  E(vib)   ...       0.00
freq.    3211.67  E(vib)   ...       0.00
freq.    3212.15  E(vib)   ...       0.00
freq.    3228.40  E(vib)   ...       0.00
freq.    3231.99  E(vib)   ...       0.00
freq.    3237.51  E(vib)   ...       0.00
freq.    3241.46  E(vib)   ...       0.00

------------
INNER ENERGY
------------

The inner energy is: U= E(el) + E(ZPE) + E(vib) + E(rot) + E(trans)
    E(el)   - is the total energy from the electronic structure calculation
              = E(kin-el) + E(nuc-el) + E(el-el) + E(nuc-nuc)
    E(ZPE)  - the the zero temperature vibrational energy from the frequency calculation
    E(vib)  - the the finite temperature correction to E(ZPE) due to population
              of excited vibrational states
    E(rot)  - is the rotational thermal energy
    E(trans)- is the translational thermal energy

Summary of contributions to the inner energy U:
Electronic energy                ...   -783.14785026 Eh

Rotational constants in cm-1:     0.018409     0.005598     0.004793

                             ****ORCA TERMINATED NORMALLY****
TOTAL RUN TIME: 0 days 0 hours 50 minutes 28 seconds 519 msec
