                         Program Version 6.1.0  -  RELEASE   -
|  1> # Automatically generated ORCA input
|  2>
|  3> # Number of cores
|  4> %pal nprocs 8 end
|  5> # RAM per core
|  6> %maxcore 3840
|  7>
|  8> ! wB97X-D3
|  9> ! 6-31+G**
| 10> ! TightSCF
| 11> ! Freq
| 12> ! NoSym
| 13>
| 14> %geom
| 15>   Calc_Hess true
| 16> end
| 17> %Output
| 18>   JSONPropFile True
| 19> End
| 20>
| 21>
| 22> *xyz 0 1
| 23> C        -2.23494600     -1.44824400      0.97690300
| 24> C        -1.07094800     -0.72540600      0.63015000
| 25> C        -0.02669200     -1.43320700      0.02757900
| 26> C        -0.09926900     -2.80246400     -0.22444300
| 27> C        -1.24558300     -3.49625200      0.13450300
| 28> C        -2.30962500     -2.82006800      0.72892800
| 29> H         0.88674100     -0.89680500     -0.21550800
| 30> H         0.73793100     -3.32012800     -0.68245600
| 31> H        -1.32365800     -4.56412700     -0.04787800
| 32> H        -3.20488100     -3.37229400      0.99636300
| 33> N        -3.30028800     -0.75640700      1.62935200
| 34> B        -0.87051000      0.81403000      0.96092400
| 35> H         1.94202100      3.87821500     -0.00484800
| 36> H         3.52011700      3.08684900     -0.18651500
| 37> H         2.02499000      2.13346700     -0.27388700
| 38> C         4.10277000      0.76091500      1.23660200
| 39> H         4.99242000      1.39511000      1.16824800
| 40> H         4.40962500     -0.21763000      1.61472700
| 41> H         3.69004200      0.62348700      0.23607300
| 42> C         3.60050900      1.35136000      3.61734600
| 43> H         3.75986900      0.31196600      3.91458500
| 44> H         4.54848300      1.88825400      3.71205600
| 45> H         2.87551500      1.79430800      4.30579600
| 46> C        -0.56853000      0.98463600      2.87601700
| 47> C        -0.69781700     -0.22387100      3.56453900
| 48> C        -1.63249200     -0.20703900      4.60713400
| 49> H        -1.74806900      1.61281700      0.80887900
| 50> H         0.17620500      1.24351800      0.51534300
| 51> C         2.54872100      2.78837100      1.74157800
| 52> C         3.07798200      1.37488200      2.17971000
| 53> O         1.18545100      2.76271500      2.21329000
| 54> O         1.88496100      0.56713700      2.15675800
| 55> B         0.81869500      1.43771700      2.25810700
| 56> C         3.26051100      3.96438600      2.39504500
| 57> H         2.83279800      4.90100900      2.02862200
| 58> H         3.15086300      3.94276600      3.48030500
| 59> H         4.32665800      3.95510500      2.14702400
| 60> C         2.51263800      2.97498300      0.22399200
| 61> H        -0.11680700     -1.09227400      3.27755500
| 62> C        -2.22153200      1.03210500      4.73611200
| 63> H        -1.87656000     -1.05677500      5.23114400
| 64> H        -2.98493100      1.31622500      5.44873800
| 65> S        -1.64065500      2.15773800      3.60861000
| 66> C        -4.12798900      0.04105900      0.73540100
| 67> H        -4.79099300     -0.58709400      0.11435400
| 68> H        -4.75157000      0.72097200      1.32554100
| 69> H        -3.50137000      0.63996600      0.07599900
| 70> C        -4.11474000     -1.54206800      2.53242400
| 71> H        -4.69543900     -0.86255600      3.16577800
| 72> H        -4.83179900     -2.21188300      2.02376600
| 73> H        -3.47565400     -2.14842600      3.17918200
| 74> *
| 75>
| 76>
| 77>                          ****END OF INPUT****

CARTESIAN COORDINATES (ANGSTROEM)
---------------------------------
  C     -2.234946   -1.448244    0.976903
  C     -1.070948   -0.725406    0.630150
  C     -0.026692   -1.433207    0.027579
  C     -0.099269   -2.802464   -0.224443
  C     -1.245583   -3.496252    0.134503
  C     -2.309625   -2.820068    0.728928
  H      0.886741   -0.896805   -0.215508
  H      0.737931   -3.320128   -0.682456
  H     -1.323658   -4.564127   -0.047878
  H     -3.204881   -3.372294    0.996363
  N     -3.300288   -0.756407    1.629352
  B     -0.870510    0.814030    0.960924
  H      1.942021    3.878215   -0.004848
  H      3.520117    3.086849   -0.186515
  H      2.024990    2.133467   -0.273887
  C      4.102770    0.760915    1.236602
  H      4.992420    1.395110    1.168248
  H      4.409625   -0.217630    1.614727
  H      3.690042    0.623487    0.236073
  C      3.600509    1.351360    3.617346
  H      3.759869    0.311966    3.914585
  H      4.548483    1.888254    3.712056
  H      2.875515    1.794308    4.305796
  C     -0.568530    0.984636    2.876017
  C     -0.697817   -0.223871    3.564539
  C     -1.632492   -0.207039    4.607134
  H     -1.748069    1.612817    0.808879
  H      0.176205    1.243518    0.515343
  C      2.548721    2.788371    1.741578
  C      3.077982    1.374882    2.179710
  O      1.185451    2.762715    2.213290
  O      1.884961    0.567137    2.156758
  B      0.818695    1.437717    2.258107
  C      3.260511    3.964386    2.395045
  H      2.832798    4.901009    2.028622
  H      3.150863    3.942766    3.480305
  H      4.326658    3.955105    2.147024
  C      2.512638    2.974983    0.223992
  H     -0.116807   -1.092274    3.277555
  C     -2.221532    1.032105    4.736112
  H     -1.876560   -1.056775    5.231144
  H     -2.984931    1.316225    5.448738
  S     -1.640655    2.157738    3.608610
  C     -4.127989    0.041059    0.735401
  H     -4.790993   -0.587094    0.114354
  H     -4.751570    0.720972    1.325541
  H     -3.501370    0.639966    0.075999
  C     -4.114740   -1.542068    2.532424
  H     -4.695439   -0.862556    3.165778
  H     -4.831799   -2.211883    2.023766
  H     -3.475654   -2.148426    3.179182

 Total Charge           Charge          ....    0
 Multiplicity           Mult            ....    1
 Number of Electrons    NEL             ....  184
 Basis Dimension        Dim             ....  571

ORBITAL ENERGIES
----------------

  NO   OCC          E(Eh)            E(eV)
   0   2.0000     -89.005678     -2421.9676
   1   2.0000     -19.252424      -523.8851
   2   2.0000     -19.249924      -523.8171
   3   2.0000     -14.430010      -392.6605
   4   2.0000     -10.353306      -281.7278
   5   2.0000     -10.352869      -281.7159
   6   2.0000     -10.350780      -281.6590
   7   2.0000     -10.327473      -281.0248
   8   2.0000     -10.315495      -280.6989
   9   2.0000     -10.312079      -280.6059
  10   2.0000     -10.308758      -280.5156
  11   2.0000     -10.302432      -280.3434
  12   2.0000     -10.294863      -280.1375
  13   2.0000     -10.280940      -279.7586
  14   2.0000     -10.280483      -279.7462
  15   2.0000     -10.280301      -279.7412
  16   2.0000     -10.278533      -279.6931
  17   2.0000     -10.275729      -279.6168
  18   2.0000     -10.275727      -279.6167
  19   2.0000     -10.273835      -279.5653
  20   2.0000     -10.273321      -279.5513
  21   2.0000     -10.256074      -279.0820
  22   2.0000      -8.098066      -220.3596
  23   2.0000      -6.900686      -187.7772
  24   2.0000      -6.815921      -185.4706
  25   2.0000      -6.052216      -164.6892
  26   2.0000      -6.047520      -164.5614
  27   2.0000      -6.045883      -164.5168
  28   2.0000      -1.182700       -32.1829
  29   2.0000      -1.111623       -30.2488
  30   2.0000      -1.045380       -28.4462
  31   2.0000      -1.021379       -27.7931
  32   2.0000      -0.950028       -25.8516
  33   2.0000      -0.927613       -25.2416
  34   2.0000      -0.873573       -23.7711
  35   2.0000      -0.868194       -23.6248
  36   2.0000      -0.865253       -23.5447
  37   2.0000      -0.845665       -23.0117
  38   2.0000      -0.844589       -22.9824
  39   2.0000      -0.824342       -22.4315
  40   2.0000      -0.814868       -22.1737
  41   2.0000      -0.794780       -21.6271
  42   2.0000      -0.749802       -20.4031
  43   2.0000      -0.739200       -20.1147
  44   2.0000      -0.707784       -19.2598
  45   2.0000      -0.692822       -18.8527
  46   2.0000      -0.685247       -18.6465
  47   2.0000      -0.670171       -18.2363
  48   2.0000      -0.658759       -17.9257
  49   2.0000      -0.648418       -17.6444
  50   2.0000      -0.632888       -17.2217
  51   2.0000      -0.617654       -16.8072
  52   2.0000      -0.590569       -16.0702
  53   2.0000      -0.577145       -15.7049
  54   2.0000      -0.567771       -15.4498
  55   2.0000      -0.563934       -15.3454
  56   2.0000      -0.556869       -15.1532
  57   2.0000      -0.552028       -15.0214
  58   2.0000      -0.547119       -14.8879
  59   2.0000      -0.542812       -14.7707
  60   2.0000      -0.526992       -14.3402
  61   2.0000      -0.520435       -14.1618
  62   2.0000      -0.513778       -13.9806
  63   2.0000      -0.511740       -13.9251
  64   2.0000      -0.503980       -13.7140
  65   2.0000      -0.501684       -13.6515
  66   2.0000      -0.496582       -13.5127
  67   2.0000      -0.495745       -13.4899
  68   2.0000      -0.490065       -13.3353
  69   2.0000      -0.482518       -13.1300
  70   2.0000      -0.474098       -12.9009
  71   2.0000      -0.472918       -12.8688
  72   2.0000      -0.469949       -12.7880
  73   2.0000      -0.465648       -12.6709
  74   2.0000      -0.462520       -12.5858
  75   2.0000      -0.461260       -12.5515
  76   2.0000      -0.453640       -12.3442
  77   2.0000      -0.449178       -12.2227
  78   2.0000      -0.447792       -12.1851
  79   2.0000      -0.443300       -12.0628
  80   2.0000      -0.436633       -11.8814
  81   2.0000      -0.430647       -11.7185
  82   2.0000      -0.420842       -11.4517
  83   2.0000      -0.401031       -10.9126
  84   2.0000      -0.391319       -10.6483
  85   2.0000      -0.377591       -10.2748
  86   2.0000      -0.365631        -9.9493
  87   2.0000      -0.358246        -9.7484
  88   2.0000      -0.346009        -9.4154
  89   2.0000      -0.335315        -9.1244
  90   2.0000      -0.313176        -8.5219
  91   2.0000      -0.279780        -7.6132
  92   0.0000      -0.010146        -0.2761
  93   0.0000       0.053906         1.4669
  94   0.0000       0.059061         1.6071
  95   0.0000       0.067506         1.8369
  96   0.0000       0.069305         1.8859

MULLIKEN ATOMIC CHARGES
-----------------------
   0 C :   -0.611825
   1 C :   -0.326936
   2 C :    0.007626
   3 C :   -0.133909
   4 C :   -0.105541
   5 C :   -0.036411
   6 H :    0.138337
   7 H :    0.142937
   8 H :    0.145899
   9 H :    0.134301
  10 N :   -0.020566
  11 B :   -0.070112
  12 H :    0.170421
  13 H :    0.161250
  14 H :    0.173547
  15 C :   -0.433445
  16 H :    0.161787
  17 H :    0.164607
  18 H :    0.172129
  19 C :   -0.281553
  20 H :    0.168527
  21 H :    0.162422
  22 H :    0.168818
  23 C :   -0.819132
  24 C :    0.415883
  25 C :   -0.337698
  26 H :   -0.031154
  27 H :   -0.079411
  28 C :   -0.062754
  29 C :   -0.438134
  30 O :   -0.441804
  31 O :   -0.421059
  32 B :    1.219221
  33 C :   -0.417961
  34 H :    0.166562
  35 H :    0.169784
  36 H :    0.161228
  37 C :   -0.308144
  38 H :    0.197443
  39 C :   -0.117481
  40 H :    0.168050
  41 H :    0.197148
  42 S :    0.237422
  43 C :   -0.150639
  44 H :    0.134486
  45 H :    0.140302
  46 H :    0.163909
  47 C :   -0.233037
  48 H :    0.145791
  49 H :    0.134550
  50 H :    0.154322
Sum of atomic charges:    0.0000000

LOEWDIN ATOMIC CHARGES
----------------------
   0 C :   -0.067063
   1 C :   -0.169419
   2 C :   -0.131164
   3 C :   -0.162239
   4 C :   -0.138249
   5 C :   -0.167545
   6 H :    0.163576
   7 H :    0.151928
   8 H :    0.151781
   9 H :    0.164535
  10 N :   -0.422719
  11 B :   -0.169155
  12 H :    0.158386
  13 H :    0.150356
  14 H :    0.159874
  15 C :   -0.306681
  16 H :    0.152683
  17 H :    0.152812
  18 H :    0.157761
  19 C :   -0.305318
  20 H :    0.155922
  21 H :    0.149663
  22 H :    0.159510
  23 C :   -0.355584
  24 C :   -0.059187
  25 C :   -0.200611
  26 H :    0.105714
  27 H :    0.135705
  28 C :   -0.063107
  29 C :   -0.061934
  30 O :   -0.326583
  31 O :   -0.335454
  32 B :    0.018788
  33 C :   -0.305457
  34 H :    0.152729
  35 H :    0.156722
  36 H :    0.152708
  37 C :   -0.312481
  38 H :    0.198800
  39 C :   -0.270745
  40 H :    0.168235
  41 H :    0.169277
  42 S :    0.598784
  43 C :   -0.209948
  44 H :    0.139785
  45 H :    0.141823
  46 H :    0.159537
  47 C :   -0.225451
  48 H :    0.146240
  49 H :    0.135202
  50 H :    0.157257

  Mayer bond orders larger than 0.100000
B(  0-C ,  1-C ) :   0.6459 B(  0-C ,  2-C ) :   0.2686 B(  0-C ,  4-C ) :  -0.1488
B(  0-C ,  5-C ) :   1.4143 B(  0-C ,  9-H ) :   0.2645 B(  0-C , 10-N ) :   1.7325
B(  0-C , 11-B ) :  -0.2536 B(  0-C , 24-C ) :  -0.1495 B(  0-C , 25-C ) :   0.1326
B(  0-C , 26-H ) :  -0.2446 B(  0-C , 43-C ) :  -0.1979 B(  0-C , 44-H ) :  -0.1064
B(  1-C ,  2-C ) :   1.4263 B(  1-C ,  4-C ) :   0.2148 B(  1-C ,  5-C ) :   0.2730
B(  1-C ,  6-H ) :   0.1357 B(  1-C ,  9-H ) :   0.1227 B(  1-C , 10-N ) :  -0.6586
B(  1-C , 11-B ) :   1.1751 B(  1-C , 23-C ) :   0.1498 B(  1-C , 26-H ) :   0.2369
B(  2-C ,  3-C ) :   1.6264 B(  2-C ,  4-C ) :  -0.2577 B(  2-C ,  5-C ) :   0.1075
B(  2-C ,  6-H ) :   0.6768 B(  2-C , 11-B ) :   0.2257 B(  3-C ,  4-C ) :   1.7904
B(  3-C ,  5-C ) :  -0.1664 B(  3-C ,  7-H ) :   0.8061 B(  4-C ,  5-C ) :   1.9431
B(  4-C ,  8-H ) :   0.7630 B(  5-C ,  8-H ) :   0.1195 B(  5-C ,  9-H ) :   0.5495
B(  5-C , 43-C ) :   0.1238 B( 10-N , 32-B ) :  -0.1092 B( 10-N , 43-C ) :   0.7649
B( 10-N , 47-C ) :   0.7436 B( 11-B , 23-C ) :   0.4459 B( 11-B , 26-H ) :   0.9402
B( 11-B , 27-H ) :   0.9517 B( 11-B , 28-C ) :  -0.1110 B( 11-B , 29-C ) :   0.1097
B( 11-B , 32-B ) :   0.1999 B( 12-H , 37-C ) :   1.0114 B( 13-H , 37-C ) :   0.9216
B( 14-H , 37-C ) :   0.9576 B( 15-C , 16-H ) :   0.9446 B( 15-C , 17-H ) :   0.9576
B( 15-C , 18-H ) :   0.9735 B( 15-C , 29-C ) :   1.1521 B( 15-C , 31-O ) :  -0.1988
B( 19-C , 20-H ) :   0.9793 B( 19-C , 21-H ) :   0.9183 B( 19-C , 22-H ) :   1.0020
B( 19-C , 29-C ) :   0.9441 B( 19-C , 30-O ) :  -0.1011 B( 19-C , 31-O ) :  -0.1783
B( 23-C , 24-C ) :   0.9414 B( 23-C , 27-H ) :  -0.1963 B( 23-C , 28-C ) :   0.1502
B( 23-C , 29-C ) :  -0.1310 B( 23-C , 32-B ) :   0.5565 B( 23-C , 38-H ) :   0.1303
B( 23-C , 42-S ) :   1.0799 B( 24-C , 25-C ) :   1.3467 B( 24-C , 27-H ) :   0.1005
B( 24-C , 38-H ) :   0.7670 B( 24-C , 39-C ) :  -0.1385 B( 25-C , 39-C ) :   1.7189
B( 25-C , 40-H ) :   0.8357 B( 25-C , 42-S ) :   0.1111 B( 27-H , 32-B ) :   0.1470
B( 28-C , 29-C ) :   0.6207 B( 28-C , 30-O ) :   1.1935 B( 28-C , 33-C ) :   1.0545
B( 28-C , 37-C ) :   1.0326 B( 29-C , 31-O ) :   1.3274 B( 30-O , 32-B ) :   0.8002
B( 30-O , 33-C ) :  -0.1363 B( 30-O , 37-C ) :  -0.1501 B( 31-O , 32-B ) :   0.8990
B( 33-C , 34-H ) :   0.9597 B( 33-C , 35-H ) :   0.9756 B( 33-C , 36-H ) :   0.9405
B( 39-C , 41-H ) :   0.8010 B( 39-C , 42-S ) :   1.4332 B( 43-C , 44-H ) :   0.9874
B( 43-C , 45-H ) :   0.9705 B( 43-C , 46-H ) :   0.9600 B( 47-C , 48-H ) :   0.9791
B( 47-C , 49-H ) :   0.9468 B( 47-C , 50-H ) :   0.9810

Dispersion correction           -0.031843752
FINAL SINGLE POINT ENERGY     -1355.124670698737

DIPOLE MOMENT
-------------

Method             : SCF
Type of density    : Electron Density
Multiplicity       :   1
Irrep              :   0
Energy             : -1355.0928269471505700 Eh
Basis              : AO
                                X                 Y                 Z
Electronic contribution:    -10.109745168       0.304734593       6.746895208
Nuclear contribution   :     10.350436843      -0.270751090      -5.527805854
                        -----------------------------------------
Total Dipole Moment    :      0.240691675       0.033983503       1.219089354
                        -----------------------------------------
Magnitude (a.u.)       :      1.243087372
Magnitude (Debye)      :      3.159676995

VIBRATIONAL FREQUENCIES
-----------------------

Scaling factor for frequencies =  1.000000000  (already applied!)

     0:       0.00 cm**-1
     1:       0.00 cm**-1
     2:       0.00 cm**-1
     3:       0.00 cm**-1
     4:       0.00 cm**-1
     5:       0.00 cm**-1
     6:    -178.30 cm**-1  ***imaginary mode***
     7:     -28.67 cm**-1  ***imaginary mode***
     8:      25.91 cm**-1
     9:      40.60 cm**-1
    10:      51.65 cm**-1
    11:      60.58 cm**-1
    12:      81.53 cm**-1
    13:     100.59 cm**-1
    14:     114.72 cm**-1
    15:     127.46 cm**-1
    16:     128.91 cm**-1
    17:     137.65 cm**-1
    18:     162.14 cm**-1
    19:     203.70 cm**-1
    20:     224.69 cm**-1
    21:     234.69 cm**-1
    22:     243.06 cm**-1
    23:     256.22 cm**-1
    24:     267.58 cm**-1
    25:     281.30 cm**-1
    26:     297.27 cm**-1
    27:     302.93 cm**-1
    28:     304.58 cm**-1
    29:     310.76 cm**-1
    30:     316.60 cm**-1
    31:     335.39 cm**-1
    32:     357.11 cm**-1
    33:     371.49 cm**-1
    34:     374.01 cm**-1
    35:     388.61 cm**-1
    36:     400.11 cm**-1
    37:     427.37 cm**-1
    38:     478.89 cm**-1
    39:     485.22 cm**-1
    40:     498.68 cm**-1
    41:     510.31 cm**-1
    42:     531.70 cm**-1
    43:     538.04 cm**-1
    44:     568.66 cm**-1
    45:     578.19 cm**-1
    46:     589.67 cm**-1
    47:     598.21 cm**-1
    48:     605.07 cm**-1
    49:     653.42 cm**-1
    50:     684.22 cm**-1
    51:     734.24 cm**-1
    52:     756.72 cm**-1
    53:     760.69 cm**-1
    54:     764.97 cm**-1
    55:     783.06 cm**-1
    56:     793.36 cm**-1
    57:     799.12 cm**-1
    58:     828.05 cm**-1
    59:     879.12 cm**-1
    60:     895.56 cm**-1
    61:     899.92 cm**-1
    62:     903.50 cm**-1
    63:     909.95 cm**-1
    64:     946.42 cm**-1
    65:     948.52 cm**-1
    66:     953.31 cm**-1
    67:     974.77 cm**-1
    68:     981.95 cm**-1
    69:     986.74 cm**-1
    70:     987.88 cm**-1
    71:     997.07 cm**-1
    72:    1011.64 cm**-1
    73:    1014.33 cm**-1
    74:    1016.30 cm**-1
    75:    1035.08 cm**-1
    76:    1085.36 cm**-1
    77:    1089.12 cm**-1
    78:    1102.16 cm**-1
    79:    1113.52 cm**-1
    80:    1120.72 cm**-1
    81:    1124.66 cm**-1
    82:    1141.45 cm**-1
    83:    1157.72 cm**-1
    84:    1175.86 cm**-1
    85:    1186.99 cm**-1
    86:    1191.77 cm**-1
    87:    1195.62 cm**-1
    88:    1204.97 cm**-1
    89:    1210.47 cm**-1
    90:    1244.52 cm**-1
    91:    1255.93 cm**-1
    92:    1266.53 cm**-1
    93:    1267.87 cm**-1
    94:    1288.29 cm**-1
    95:    1310.52 cm**-1
    96:    1317.65 cm**-1
    97:    1336.15 cm**-1
    98:    1341.21 cm**-1
    99:    1350.75 cm**-1
   100:    1373.53 cm**-1
   101:    1389.95 cm**-1
   102:    1414.92 cm**-1
   103:    1418.20 cm**-1
   104:    1425.52 cm**-1
   105:    1435.08 cm**-1
   106:    1450.37 cm**-1
   107:    1476.49 cm**-1
   108:    1478.28 cm**-1
   109:    1481.42 cm**-1
   110:    1488.47 cm**-1
   111:    1488.71 cm**-1
   112:    1489.97 cm**-1
   113:    1493.97 cm**-1
   114:    1494.56 cm**-1
   115:    1503.49 cm**-1
   116:    1507.17 cm**-1
   117:    1509.66 cm**-1
   118:    1513.95 cm**-1
   119:    1516.67 cm**-1
   120:    1528.80 cm**-1
   121:    1531.59 cm**-1
   122:    1544.46 cm**-1
   123:    1561.49 cm**-1
   124:    1659.77 cm**-1
   125:    1683.79 cm**-1
   126:    2506.52 cm**-1
   127:    2635.12 cm**-1
   128:    2977.02 cm**-1
   129:    2986.52 cm**-1
   130:    3079.27 cm**-1
   131:    3082.57 cm**-1
   132:    3083.74 cm**-1
   133:    3087.66 cm**-1
   134:    3095.53 cm**-1
   135:    3107.13 cm**-1
   136:    3160.42 cm**-1
   137:    3162.71 cm**-1
   138:    3163.74 cm**-1
   139:    3168.89 cm**-1
   140:    3171.96 cm**-1
   141:    3173.26 cm**-1
   142:    3177.77 cm**-1
   143:    3188.08 cm**-1
   144:    3189.49 cm**-1
   145:    3199.55 cm**-1
   146:    3206.71 cm**-1
   147:    3215.23 cm**-1
   148:    3231.15 cm**-1
   149:    3240.04 cm**-1
   150:    3263.78 cm**-1
   151:    3276.08 cm**-1
   152:    3291.35 cm**-1

IR SPECTRUM
-----------

 Mode   freq       eps      Int      T**2         TX        TY        TZ
       cm**-1   L/(mol*cm) km/mol    a.u.
----------------------------------------------------------------------------
  8:     25.91   0.000019    0.10  0.000228  (-0.006184 -0.007839 -0.011328)
  9:     40.60   0.000291    1.47  0.002237  ( 0.025481  0.008739  0.038880)
 10:     51.65   0.000118    0.60  0.000716  ( 0.016022 -0.021421 -0.000278)
 11:     60.58   0.000104    0.52  0.000535  ( 0.016162  0.015321  0.006215)
 12:     81.53   0.000387    1.96  0.001482  ( 0.035380 -0.015159 -0.000093)
 13:    100.59   0.000016    0.08  0.000050  (-0.002531  0.000747  0.006532)
 14:    114.72   0.000468    2.37  0.001274  ( 0.011653  0.016240  0.029575)
 15:    127.46   0.000501    2.53  0.001228  (-0.034474 -0.002831 -0.005582)
 16:    128.91   0.000260    1.32  0.000630  (-0.017052 -0.018415  0.000468)
 17:    137.65   0.002282   11.53  0.005174  (-0.017966 -0.022271 -0.065998)
 18:    162.14   0.001827    9.23  0.003516  (-0.002800 -0.017387 -0.056620)
 19:    203.70   0.001126    5.69  0.001725  (-0.007470 -0.022322 -0.034213)
 20:    224.69   0.000145    0.73  0.000202  (-0.012505 -0.006736  0.000347)
 21:    234.69   0.000115    0.58  0.000153  (-0.009317 -0.007013  0.004134)
 22:    243.06   0.000446    2.25  0.000572  (-0.022715 -0.003541  0.006616)
 23:    256.22   0.000078    0.39  0.000095  ( 0.009561  0.000512 -0.001804)
 24:    267.58   0.001184    5.98  0.001381  (-0.017123 -0.015241 -0.029248)
 25:    281.30   0.000533    2.69  0.000591  ( 0.023749  0.003968  0.003381)
 26:    297.27   0.000056    0.28  0.000059  ( 0.003844  0.001422  0.006490)
 27:    302.93   0.000155    0.78  0.000160  (-0.005778 -0.002604 -0.010944)
 28:    304.58   0.000241    1.22  0.000247  (-0.000617 -0.015221 -0.003822)
 29:    310.76   0.000789    3.99  0.000793  ( 0.003060  0.010264  0.026035)
 30:    316.60   0.000095    0.48  0.000094  ( 0.003458  0.005726  0.007001)
 31:    335.39   0.000393    1.99  0.000366  (-0.003256 -0.001663  0.018768)
 32:    357.11   0.000518    2.62  0.000453  (-0.010552 -0.004684 -0.017881)
 33:    371.49   0.004290   21.68  0.003603  ( 0.017664  0.033989  0.046219)
 34:    374.01   0.001341    6.77  0.001119  ( 0.015105  0.015418  0.025547)
 35:    388.61   0.001416    7.16  0.001137  (-0.007094 -0.003371 -0.032794)
 36:    400.11   0.001222    6.18  0.000953  (-0.010011 -0.006226 -0.028535)
 37:    427.37   0.001364    6.89  0.000996  ( 0.015365  0.016123  0.022360)
 38:    478.89   0.001097    5.54  0.000715  (-0.017913 -0.006718  0.018676)
 39:    485.22   0.002095   10.59  0.001348  (-0.011582 -0.022769 -0.026363)
 40:    498.68   0.003144   15.89  0.001968  ( 0.021588  0.015415  0.035551)
 41:    510.31   0.001607    8.12  0.000983  ( 0.003519  0.004594  0.030807)
 42:    531.70   0.000190    0.96  0.000112  ( 0.010245  0.000365 -0.002568)
 43:    538.04   0.001566    7.92  0.000908  ( 0.019418  0.022598  0.004555)
 44:    568.66   0.015082   76.22  0.008276  (-0.027902 -0.011010 -0.085888)
 45:    578.19   0.002756   13.93  0.001487  (-0.009185 -0.021086 -0.030956)
 46:    589.67   0.001179    5.96  0.000624  ( 0.013322 -0.011886  0.017475)
 47:    598.21   0.001154    5.83  0.000602  (-0.011760 -0.010280 -0.018917)
 48:    605.07   0.042126  212.89  0.021726  ( 0.052471  0.048893  0.128773)
 49:    653.42   0.001201    6.07  0.000574  (-0.016969 -0.010393 -0.013330)
 50:    684.22   0.001231    6.22  0.000562  (-0.021047 -0.007952  0.007447)
 51:    734.24   0.000057    0.29  0.000024  (-0.002218 -0.002167 -0.003808)
 52:    756.72   0.013625   68.85  0.005619  (-0.066744 -0.008448 -0.033055)
 53:    760.69   0.000922    4.66  0.000378  (-0.009639 -0.013850  0.009680)
 54:    764.97   0.002565   12.96  0.001046  (-0.029948 -0.011920 -0.002719)
 55:    783.06   0.011334   57.28  0.004517  (-0.005741  0.010803  0.066084)
 56:    793.36   0.003360   16.98  0.001322  ( 0.029151  0.002190  0.021609)
 57:    799.12   0.002057   10.39  0.000803  (-0.019334  0.004760 -0.020166)
 58:    828.05   0.001794    9.06  0.000676  ( 0.016502  0.017996  0.008931)
 59:    879.12   0.001738    8.78  0.000617  (-0.004789  0.018261  0.016143)
 60:    895.56   0.005703   28.82  0.001987  ( 0.030497  0.010722 -0.030695)
 61:    899.92   0.001980   10.00  0.000686  ( 0.016209 -0.014555 -0.014557)
 62:    903.50   0.003177   16.06  0.001097  ( 0.011773 -0.027877 -0.013474)
 63:    909.95   0.000240    1.21  0.000082  ( 0.005882 -0.004171 -0.005508)
 64:    946.42   0.000013    0.06  0.000004  ( 0.001998  0.000004  0.000421)
 65:    948.52   0.000012    0.06  0.000004  ( 0.001957  0.000207 -0.000156)
 66:    953.31   0.000853    4.31  0.000279  (-0.014282  0.007281  0.004700)
 67:    974.77   0.007946   40.16  0.002544  ( 0.008891  0.010802  0.048458)
 68:    981.95   0.000212    1.07  0.000067  (-0.008010 -0.001185  0.001341)
 69:    986.74   0.003166   16.00  0.001001  ( 0.004615 -0.003085 -0.031151)
 70:    987.88   0.000288    1.46  0.000091  (-0.003546  0.001269  0.008764)
 71:    997.07   0.006514   32.92  0.002039  (-0.044930  0.000648 -0.004416)
 72:   1011.64   0.000307    1.55  0.000095  ( 0.007859  0.004081  0.004019)
 73:   1014.33   0.001047    5.29  0.000322  ( 0.013980  0.007041  0.008777)
 74:   1016.30   0.009999   50.53  0.003070  ( 0.040147  0.019877  0.032612)
 75:   1035.08   0.020009  101.12  0.006033  ( 0.058429  0.029556  0.041774)
 76:   1085.36   0.001143    5.78  0.000329  ( 0.002795  0.016283 -0.007466)
 77:   1089.12   0.003738   18.89  0.001071  ( 0.005680  0.026591  0.018213)
 78:   1102.16   0.034676  175.24  0.009818  ( 0.080360  0.047593  0.033094)
 79:   1113.52   0.002443   12.35  0.000685  ( 0.020040 -0.012734  0.010999)
 80:   1120.72   0.000717    3.62  0.000200  ( 0.002192 -0.001076 -0.013914)
 81:   1124.66   0.001292    6.53  0.000359  (-0.011638  0.014424 -0.003880)
 82:   1141.45   0.014226   71.89  0.003889  ( 0.012781  0.037768  0.047954)
 83:   1157.72   0.001475    7.46  0.000398  (-0.014220  0.009174 -0.010550)
 84:   1175.86   0.002116   10.69  0.000562  (-0.021303 -0.006314 -0.008242)
 85:   1186.99   0.003965   20.04  0.001042  (-0.012223 -0.019619 -0.022542)
 86:   1191.77   0.007562   38.21  0.001980  ( 0.025994  0.027283  0.023664)
 87:   1195.62   0.002470   12.48  0.000645  (-0.022250  0.009943  0.007130)
 88:   1204.97   0.006107   30.86  0.001582  ( 0.016020 -0.003188  0.036259)
 89:   1210.47   0.054610  275.98  0.014079  ( 0.107715  0.033267 -0.037007)
 90:   1244.52   0.008102   40.95  0.002032  ( 0.006968  0.043398 -0.009985)
 91:   1255.93   0.000559    2.83  0.000139  (-0.000154  0.010035  0.006182)
 92:   1266.53   0.003252   16.43  0.000801  (-0.004721  0.026957  0.007231)
 93:   1267.87   0.003345   16.90  0.000823  ( 0.013063 -0.007282  0.024487)
 94:   1288.29   0.001395    7.05  0.000338  ( 0.017132  0.004128 -0.005238)
 95:   1310.52   0.052831  266.99  0.012580  ( 0.098441  0.039123 -0.036865)
 96:   1317.65   0.004799   24.25  0.001136  ( 0.024061 -0.019726 -0.012978)
 97:   1336.15   0.001495    7.55  0.000349  ( 0.018238 -0.002298 -0.003342)
 98:   1341.21   0.063624  321.53  0.014804  ( 0.109620  0.029209 -0.043974)
 99:   1350.75   0.023496  118.74  0.005428  ( 0.016019 -0.071915 -0.000016)
100:   1373.53   0.005613   28.36  0.001275  ( 0.033573 -0.011417 -0.004200)
101:   1389.95   0.028498  144.02  0.006398  (-0.056600 -0.044154  0.035287)
102:   1414.92   0.006026   30.45  0.001329  (-0.000038  0.000493  0.036453)
103:   1418.20   0.001673    8.45  0.000368  ( 0.002173  0.004531  0.018514)
104:   1425.52   0.004871   24.62  0.001066  ( 0.012056 -0.029688  0.006300)
105:   1435.08   0.004793   24.22  0.001042  (-0.029137 -0.012848  0.005305)
106:   1450.37   0.000204    1.03  0.000044  ( 0.000331 -0.003558  0.005582)
107:   1476.49   0.002144   10.84  0.000453  (-0.018227  0.007945  0.007606)
108:   1478.28   0.000288    1.45  0.000061  ( 0.006875  0.001238 -0.003457)
109:   1481.42   0.013448   67.96  0.002833  ( 0.033151 -0.028057 -0.030769)
110:   1488.47   0.000943    4.77  0.000198  (-0.005565 -0.001872  0.012777)
111:   1488.71   0.000472    2.39  0.000099  (-0.001184  0.006949 -0.007023)
112:   1489.97   0.000258    1.30  0.000054  (-0.003529 -0.006438  0.000223)
113:   1493.97   0.006013   30.39  0.001256  ( 0.027777 -0.015736 -0.015392)
114:   1494.56   0.000659    3.33  0.000138  (-0.000973  0.010874  0.004297)
115:   1503.49   0.003403   17.20  0.000706  (-0.003447  0.024750  0.009046)
116:   1507.17   0.002959   14.95  0.000613  (-0.002951 -0.003727 -0.024291)
117:   1509.66   0.001019    5.15  0.000211  (-0.008793  0.007633 -0.008669)
118:   1513.95   0.000536    2.71  0.000111  (-0.001127  0.010324  0.001633)
119:   1516.67   0.000859    4.34  0.000177  (-0.012754 -0.002266  0.003004)
120:   1528.80   0.000518    2.62  0.000106  ( 0.008589 -0.005549  0.001116)
121:   1531.59   0.002513   12.70  0.000512  (-0.021405 -0.006375  0.003635)
122:   1544.46   0.013004   65.71  0.002627  (-0.047258  0.011152  0.016422)
123:   1561.49   0.008264   41.76  0.001652  ( 0.026765  0.021782 -0.021466)
124:   1659.77   0.003190   16.12  0.000600  (-0.022913 -0.007858  0.003596)
125:   1683.79   0.006011   30.37  0.001114  (-0.021894  0.021953  0.012356)
126:   2506.52   0.046750  236.26  0.005820  ( 0.060372  0.045501 -0.010258)
127:   2635.12   0.020645  104.33  0.002445  (-0.038943  0.027158 -0.013811)
128:   2977.02   0.016138   81.55  0.001692  ( 0.029514  0.027080 -0.009341)
129:   2986.52   0.031587  159.63  0.003301  (-0.050419 -0.007656 -0.026456)
130:   3079.27   0.001666    8.42  0.000169  (-0.002491 -0.001265  0.012692)
131:   3082.57   0.004495   22.71  0.000455  (-0.007417 -0.009974 -0.017335)
132:   3083.74   0.002574   13.01  0.000260  ( 0.011077 -0.010198  0.005813)
133:   3087.66   0.006219   31.43  0.000628  ( 0.021014  0.010241 -0.009056)
134:   3095.53   0.007433   37.56  0.000749  ( 0.006339 -0.011086 -0.024213)
135:   3107.13   0.006842   34.58  0.000687  ( 0.010962 -0.021599 -0.010026)
136:   3160.42   0.004310   21.78  0.000426  ( 0.016910 -0.010568  0.005282)
137:   3162.71   0.000737    3.73  0.000073  (-0.000995 -0.008420  0.000925)
138:   3163.74   0.001912    9.66  0.000189  (-0.003322  0.013307 -0.000669)
139:   3168.89   0.002900   14.66  0.000286  (-0.015901  0.003793  0.004290)
140:   3171.96   0.004078   20.61  0.000401  (-0.014192  0.014081 -0.001237)
141:   3173.26   0.008411   42.51  0.000827  (-0.024459 -0.014623  0.003889)
142:   3177.77   0.005038   25.46  0.000495  (-0.002866  0.022026 -0.001183)
143:   3188.08   0.003207   16.20  0.000314  (-0.004674 -0.004877  0.016378)
144:   3189.49   0.003866   19.54  0.000378  ( 0.012065  0.002163  0.015100)
145:   3199.55   0.001770    8.95  0.000173  (-0.009041 -0.003024  0.009043)
146:   3206.71   0.000753    3.80  0.000073  ( 0.007411  0.004116 -0.001170)
147:   3215.23   0.002726   13.78  0.000265  ( 0.006081  0.015087  0.000060)
148:   3231.15   0.005940   30.02  0.000574  ( 0.021899  0.000397 -0.009693)
149:   3240.04   0.004835   24.43  0.000466  ( 0.001794 -0.019982 -0.007949)
150:   3263.78   0.000160    0.81  0.000015  ( 0.001508  0.002231 -0.002838)
151:   3276.08   0.000239    1.21  0.000023  (-0.001948 -0.001603  0.004047)
152:   3291.35   0.000104    0.53  0.000010  ( 0.000449  0.002703 -0.001543)

--------------------------
THERMOCHEMISTRY AT 298.15K
--------------------------

Temperature         ...   298.15 K
Pressure            ...     1.00 atm
Total Mass          ...   343.10 AMU
Quasi RRHO          ...     True
Cut-Off Frequency   ...     1.00 cm^-1

Throughout the following assumptions are being made:
  (1) The electronic state is orbitally nondegenerate
  (2) There are no thermally accessible electronically excited states
  (3) Hindered rotations indicated by low frequency modes are not
      treated as such but are treated as vibrations and this may
      cause some error
  (4) All equations used are the standard statistical mechanics
      equations for an ideal gas
  (5) All vibrations are strictly harmonic

freq.      25.91  E(vib)   ...       0.56
freq.      40.60  E(vib)   ...       0.54
freq.      51.65  E(vib)   ...       0.52
freq.      60.58  E(vib)   ...       0.51
freq.      81.53  E(vib)   ...       0.48
freq.     100.59  E(vib)   ...       0.46
freq.     114.72  E(vib)   ...       0.44
freq.     127.46  E(vib)   ...       0.43
freq.     128.91  E(vib)   ...       0.43
freq.     137.65  E(vib)   ...       0.42
freq.     162.14  E(vib)   ...       0.39
freq.     203.70  E(vib)   ...       0.35
freq.     224.69  E(vib)   ...       0.33
freq.     234.69  E(vib)   ...       0.32
freq.     243.06  E(vib)   ...       0.31
freq.     256.22  E(vib)   ...       0.30
freq.     267.58  E(vib)   ...       0.29
freq.     281.30  E(vib)   ...       0.28
freq.     297.27  E(vib)   ...       0.27
freq.     302.93  E(vib)   ...       0.26
freq.     304.58  E(vib)   ...       0.26
freq.     310.76  E(vib)   ...       0.26
freq.     316.60  E(vib)   ...       0.25
freq.     335.39  E(vib)   ...       0.24
freq.     357.11  E(vib)   ...       0.22
freq.     371.49  E(vib)   ...       0.21
freq.     374.01  E(vib)   ...       0.21
freq.     388.61  E(vib)   ...       0.20
freq.     400.11  E(vib)   ...       0.19
freq.     427.37  E(vib)   ...       0.18
freq.     478.89  E(vib)   ...       0.15
freq.     485.22  E(vib)   ...       0.15
freq.     498.68  E(vib)   ...       0.14
freq.     510.31  E(vib)   ...       0.14
freq.     531.70  E(vib)   ...       0.13
freq.     538.04  E(vib)   ...       0.12
freq.     568.66  E(vib)   ...       0.11
freq.     578.19  E(vib)   ...       0.11
freq.     589.67  E(vib)   ...       0.10
freq.     598.21  E(vib)   ...       0.10
freq.     605.07  E(vib)   ...       0.10
freq.     653.42  E(vib)   ...       0.08
freq.     684.22  E(vib)   ...       0.07
freq.     734.24  E(vib)   ...       0.06
freq.     756.72  E(vib)   ...       0.06
freq.     760.69  E(vib)   ...       0.06
freq.     764.97  E(vib)   ...       0.06
freq.     783.06  E(vib)   ...       0.05
freq.     793.36  E(vib)   ...       0.05
freq.     799.12  E(vib)   ...       0.05
freq.     828.05  E(vib)   ...       0.04
freq.     879.12  E(vib)   ...       0.04
freq.     895.56  E(vib)   ...       0.03
freq.     899.92  E(vib)   ...       0.03
freq.     903.50  E(vib)   ...       0.03
freq.     909.95  E(vib)   ...       0.03
freq.     946.42  E(vib)   ...       0.03
freq.     948.52  E(vib)   ...       0.03
freq.     953.31  E(vib)   ...       0.03
freq.     974.77  E(vib)   ...       0.03
freq.     981.95  E(vib)   ...       0.02
freq.     986.74  E(vib)   ...       0.02
freq.     987.88  E(vib)   ...       0.02
freq.     997.07  E(vib)   ...       0.02
freq.    1011.64  E(vib)   ...       0.02
freq.    1014.33  E(vib)   ...       0.02
freq.    1016.30  E(vib)   ...       0.02
freq.    1035.08  E(vib)   ...       0.02
freq.    1085.36  E(vib)   ...       0.02
freq.    1089.12  E(vib)   ...       0.02
freq.    1102.16  E(vib)   ...       0.02
freq.    1113.52  E(vib)   ...       0.01
freq.    1120.72  E(vib)   ...       0.01
freq.    1124.66  E(vib)   ...       0.01
freq.    1141.45  E(vib)   ...       0.01
freq.    1157.72  E(vib)   ...       0.01
freq.    1175.86  E(vib)   ...       0.01
freq.    1186.99  E(vib)   ...       0.01
freq.    1191.77  E(vib)   ...       0.01
freq.    1195.62  E(vib)   ...       0.01
freq.    1204.97  E(vib)   ...       0.01
freq.    1210.47  E(vib)   ...       0.01
freq.    1244.52  E(vib)   ...       0.01
freq.    1255.93  E(vib)   ...       0.01
freq.    1266.53  E(vib)   ...       0.01
freq.    1267.87  E(vib)   ...       0.01
freq.    1288.29  E(vib)   ...       0.01
freq.    1310.52  E(vib)   ...       0.01
freq.    1317.65  E(vib)   ...       0.01
freq.    1336.15  E(vib)   ...       0.01
freq.    1341.21  E(vib)   ...       0.01
freq.    1350.75  E(vib)   ...       0.01
freq.    1373.53  E(vib)   ...       0.01
freq.    1389.95  E(vib)   ...       0.00
freq.    1414.92  E(vib)   ...       0.00
freq.    1418.20  E(vib)   ...       0.00
freq.    1425.52  E(vib)   ...       0.00
freq.    1435.08  E(vib)   ...       0.00
freq.    1450.37  E(vib)   ...       0.00
freq.    1476.49  E(vib)   ...       0.00
freq.    1478.28  E(vib)   ...       0.00
freq.    1481.42  E(vib)   ...       0.00
freq.    1488.47  E(vib)   ...       0.00
freq.    1488.71  E(vib)   ...       0.00
freq.    1489.97  E(vib)   ...       0.00
freq.    1493.97  E(vib)   ...       0.00
freq.    1494.56  E(vib)   ...       0.00
freq.    1503.49  E(vib)   ...       0.00
freq.    1507.17  E(vib)   ...       0.00
freq.    1509.66  E(vib)   ...       0.00
freq.    1513.95  E(vib)   ...       0.00
freq.    1516.67  E(vib)   ...       0.00
freq.    1528.80  E(vib)   ...       0.00
freq.    1531.59  E(vib)   ...       0.00
freq.    1544.46  E(vib)   ...       0.00
freq.    1561.49  E(vib)   ...       0.00
freq.    1659.77  E(vib)   ...       0.00
freq.    1683.79  E(vib)   ...       0.00
freq.    2506.52  E(vib)   ...       0.00
freq.    2635.12  E(vib)   ...       0.00
freq.    2977.02  E(vib)   ...       0.00
freq.    2986.52  E(vib)   ...       0.00
freq.    3079.27  E(vib)   ...       0.00
freq.    3082.57  E(vib)   ...       0.00
freq.    3083.74  E(vib)   ...       0.00
freq.    3087.66  E(vib)   ...       0.00
freq.    3095.53  E(vib)   ...       0.00
freq.    3107.13  E(vib)   ...       0.00
freq.    3160.42  E(vib)   ...       0.00
freq.    3162.71  E(vib)   ...       0.00
freq.    3163.74  E(vib)   ...       0.00
freq.    3168.89  E(vib)   ...       0.00
freq.    3171.96  E(vib)   ...       0.00
freq.    3173.26  E(vib)   ...       0.00
freq.    3177.77  E(vib)   ...       0.00
freq.    3188.08  E(vib)   ...       0.00
freq.    3189.49  E(vib)   ...       0.00
freq.    3199.55  E(vib)   ...       0.00
freq.    3206.71  E(vib)   ...       0.00
freq.    3215.23  E(vib)   ...       0.00
freq.    3231.15  E(vib)   ...       0.00
freq.    3240.04  E(vib)   ...       0.00

Rotational constants in cm-1:     0.011818     0.005670     0.004589

                             ****ORCA TERMINATED NORMALLY****
TOTAL RUN TIME: 0 days 2 hours 44 minutes 8 seconds 30 msec
