                         Program Version 6.0.1  -  RELEASE   -
|  1> # Automatically generated ORCA input
|  2>
|  3> # Number of cores
|  4> %pal nprocs 24 end
|  5> # RAM per core
|  6> %maxcore 2560
|  7>
|  8> ! wB97X-D3
|  9> ! 6-31G**
| 10> ! TightSCF
| 11> ! Freq
| 12> ! NoSym
| 13> ! IRC
| 14>
| 15> %geom
| 16>     Calc_Hess true
| 17>     end
| 18>
| 19> %geom
| 20>   Calc_Hess true
| 21> end
| 22>
| 23>
| 24> *xyz 0 1
| 25> H         1.51627700     -0.31114800      2.95139900
| 26> C         2.25023900     -0.17078700      2.16386700
| 27> C         2.87073500      1.06275100      2.00309300
| 28> C         2.57639400     -1.22485600      1.31591800
| 29> C         3.81980200      1.28840200      0.99742500
| 30> H         2.61281000      1.87620100      2.67614200
| 31> C         3.51922000     -1.03168800      0.31390900
| 32> H         2.09984900     -2.19301100      1.43399900
| 33> C         4.13275800      0.21160400      0.15234500
| 34> H         3.77543700     -1.85068400     -0.35211500
| 35> B         4.41951600      2.75273300      0.83944400
| 36> H         5.71626300      2.00214700     -0.14480000
| 37> H         5.93294300      2.64590100      0.26907200
| 38> C         3.70424300      3.70941400     -0.16197500
| 39> C         2.54472600      3.49251600     -0.89413400
| 40> C         2.22717300      4.67450000     -1.60057000
| 41> H         1.97941100      2.56998700     -0.88097100
| 42> C         3.20433700      5.59312000     -1.28745400
| 43> H         1.38328700      4.84520900     -2.25318400
| 44> H         3.34353100      6.61324500     -1.61690100
| 45> N         4.08134100      5.01669500     -0.41607300
| 46> C         5.27367800      5.65299500      0.09775900
| 47> H         5.35497900      5.49027000      1.17449300
| 48> H         6.17491900      5.25875800     -0.38380600
| 49> H         5.21732000      6.72620000     -0.09161900
| 50> N         5.11891800      0.42215600     -0.88034400
| 51> H         4.94124700      3.22797400      1.81829100
| 52> C         4.52982900      0.67744600     -2.19285100
| 53> H         5.31757300      0.98217400     -2.88884100
| 54> H         4.02859000     -0.21433500     -2.60300700
| 55> H         3.80650700      1.49009900     -2.11492800
| 56> C         6.16052500     -0.59420100     -0.93692800
| 57> H         5.80741700     -1.55913200     -1.33472500
| 58> H         6.96637300     -0.24103200     -1.58784300
| 59> H         6.56670100     -0.75816100      0.06348200
| 60> *
| 61>
| 62>
| 63>                          ****END OF INPUT****

CARTESIAN COORDINATES (ANGSTROEM)
---------------------------------
  H      1.516277   -0.311148    2.951399
  C      2.250239   -0.170787    2.163867
  C      2.870735    1.062751    2.003093
  C      2.576394   -1.224856    1.315918
  C      3.819802    1.288402    0.997425
  H      2.612810    1.876201    2.676142
  C      3.519220   -1.031688    0.313909
  H      2.099849   -2.193011    1.433999
  C      4.132758    0.211604    0.152345
  H      3.775437   -1.850684   -0.352115
  B      4.419516    2.752733    0.839444
  H      5.716263    2.002147   -0.144800
  H      5.932943    2.645901    0.269072
  C      3.704243    3.709414   -0.161975
  C      2.544726    3.492516   -0.894134
  C      2.227173    4.674500   -1.600570
  H      1.979411    2.569987   -0.880971
  C      3.204337    5.593120   -1.287454
  H      1.383287    4.845209   -2.253184
  H      3.343531    6.613245   -1.616901
  N      4.081341    5.016695   -0.416073
  C      5.273678    5.652995    0.097759
  H      5.354979    5.490270    1.174493
  H      6.174919    5.258758   -0.383806
  H      5.217320    6.726200   -0.091619
  N      5.118918    0.422156   -0.880344
  H      4.941247    3.227974    1.818291
  C      4.529829    0.677446   -2.192851
  H      5.317573    0.982174   -2.888841
  H      4.028590   -0.214335   -2.603007
  H      3.806507    1.490099   -2.114928
  C      6.160525   -0.594201   -0.936928
  H      5.807417   -1.559132   -1.334725
  H      6.966373   -0.241032   -1.587843
  H      6.566701   -0.758161    0.063482

 Total Charge           Charge          ....    0
 Multiplicity           Mult            ....    1
 Number of Electrons    NEL             ....  116
 Basis Dimension        Dim             ....  319

ORBITAL ENERGIES
----------------

  NO   OCC          E(Eh)            E(eV)
   0   2.0000     -14.470668      -393.7669
   1   2.0000     -14.446052      -393.0971
   2   2.0000     -10.318783      -280.7884
   3   2.0000     -10.312720      -280.6234
   4   2.0000     -10.310424      -280.5609
   5   2.0000     -10.302979      -280.3583
   6   2.0000     -10.291787      -280.0538
   7   2.0000     -10.283385      -279.8251
   8   2.0000     -10.282908      -279.8122
   9   2.0000     -10.280200      -279.7385
  10   2.0000     -10.279060      -279.7074
  11   2.0000     -10.266363      -279.3619
  12   2.0000     -10.265947      -279.3506
  13   2.0000     -10.252804      -278.9930
  14   2.0000     -10.252405      -278.9821
  15   2.0000      -6.829676      -185.8449
  16   2.0000      -1.085957       -29.5504
  17   2.0000      -1.055289       -28.7159
  18   2.0000      -0.955915       -26.0118
  19   2.0000      -0.903846       -24.5949
  20   2.0000      -0.856416       -23.3043
  21   2.0000      -0.850291       -23.1376
  22   2.0000      -0.824697       -22.4412
  23   2.0000      -0.817619       -22.2486
  24   2.0000      -0.789616       -21.4866
  25   2.0000      -0.755407       -20.5557
  26   2.0000      -0.716268       -19.4906
  27   2.0000      -0.680434       -18.5156
  28   2.0000      -0.665336       -18.1047
  29   2.0000      -0.654688       -17.8150
  30   2.0000      -0.627489       -17.0749
  31   2.0000      -0.610197       -16.6043
  32   2.0000      -0.600555       -16.3419
  33   2.0000      -0.574717       -15.6388
  34   2.0000      -0.561426       -15.2772
  35   2.0000      -0.556268       -15.1368
  36   2.0000      -0.554659       -15.0930
  37   2.0000      -0.529285       -14.4026
  38   2.0000      -0.525382       -14.2964
  39   2.0000      -0.520564       -14.1653
  40   2.0000      -0.500559       -13.6209
  41   2.0000      -0.496465       -13.5095
  42   2.0000      -0.491277       -13.3683
  43   2.0000      -0.479466       -13.0469
  44   2.0000      -0.475079       -12.9276
  45   2.0000      -0.467979       -12.7343
  46   2.0000      -0.463472       -12.6117
  47   2.0000      -0.456714       -12.4278
  48   2.0000      -0.453570       -12.3423
  49   2.0000      -0.447754       -12.1840
  50   2.0000      -0.426423       -11.6036
  51   2.0000      -0.410599       -11.1730
  52   2.0000      -0.396218       -10.7816
  53   2.0000      -0.333443        -9.0734
  54   2.0000      -0.321033        -8.7358
  55   2.0000      -0.310284        -8.4433
  56   2.0000      -0.306862        -8.3501
  57   2.0000      -0.276506        -7.5241
  58   0.0000       0.075608         2.0574
  59   0.0000       0.082875         2.2551
  60   0.0000       0.095236         2.5915
  61   0.0000       0.157470         4.2850
  62   0.0000       0.177079         4.8186

MULLIKEN ATOMIC CHARGES
-----------------------
   0 H :    0.117268
   1 C :   -0.105465
   2 C :   -0.175213
   3 C :   -0.140616
   4 C :    0.029338
   5 H :    0.118522
   6 C :   -0.106966
   7 H :    0.118517
   8 C :    0.150233
   9 H :    0.108041
  10 B :   -0.067104
  11 H :    0.127907
  12 H :    0.004279
  13 C :    0.254315
  14 C :   -0.198369
  15 C :   -0.193198
  16 H :    0.112403
  17 C :    0.048383
  18 H :    0.109389
  19 H :    0.122603
  20 N :   -0.445010
  21 C :   -0.208618
  22 H :    0.154415
  23 H :    0.137261
  24 H :    0.134652
  25 N :   -0.505941
  26 H :   -0.054554
  27 C :   -0.194663
  28 H :    0.121872
  29 H :    0.103303
  30 H :    0.149064
  31 C :   -0.198591
  32 H :    0.105093
  33 H :    0.126622
  34 H :    0.140829
Sum of atomic charges:    0.0000000

LOEWDIN ATOMIC CHARGES
----------------------
   0 H :    0.078372
   1 C :   -0.082237
   2 C :   -0.061915
   3 C :   -0.081314
   4 C :   -0.037584
   5 H :    0.080614
   6 C :   -0.092211
   7 H :    0.078024
   8 C :    0.014954
   9 H :    0.075873
  10 B :   -0.199014
  11 H :    0.140820
  12 H :    0.061932
  13 C :   -0.049711
  14 C :   -0.120278
  15 C :   -0.148587
  16 H :    0.074992
  17 C :   -0.069929
  18 H :    0.074104
  19 H :    0.072690
  20 N :    0.025233
  21 C :   -0.114575
  22 H :    0.087682
  23 H :    0.076011
  24 H :    0.083051
  25 N :   -0.144784
  26 H :   -0.000747
  27 C :   -0.123459
  28 H :    0.072404
  29 H :    0.056337
  30 H :    0.087475
  31 C :   -0.126152
  32 H :    0.055946
  33 H :    0.074452
  34 H :    0.081530

  Mayer bond orders larger than 0.100000
B(  0-H ,  1-C ) :   0.9492 B(  1-C ,  2-C ) :   1.4470 B(  1-C ,  3-C ) :   1.4425
B(  2-C ,  4-C ) :   1.4092 B(  2-C ,  5-H ) :   0.9434 B(  3-C ,  6-C ) :   1.4472
B(  3-C ,  7-H ) :   0.9470 B(  4-C ,  8-C ) :   1.4265 B(  4-C , 10-B ) :   0.9622
B(  6-C ,  8-C ) :   1.4069 B(  6-C ,  9-H ) :   0.9432 B(  8-C , 25-N ) :   0.9001
B( 10-B , 11-H ) :   0.1605 B( 10-B , 12-H ) :   0.2345 B( 10-B , 13-C ) :   1.0674
B( 10-B , 26-H ) :   0.9324 B( 11-H , 12-H ) :   0.7014 B( 11-H , 25-N ) :   0.1185
B( 13-C , 14-C ) :   1.4831 B( 13-C , 20-N ) :   1.0678 B( 14-C , 15-C ) :   1.3747
B( 14-C , 16-H ) :   0.9473 B( 15-C , 17-C ) :   1.5487 B( 15-C , 18-H ) :   0.9535
B( 17-C , 19-H ) :   0.9461 B( 17-C , 20-N ) :   1.1787 B( 20-N , 21-C ) :   0.9370
B( 21-C , 22-H ) :   0.9505 B( 21-C , 23-H ) :   0.9533 B( 21-C , 24-H ) :   0.9630
B( 25-N , 27-C ) :   0.9408 B( 25-N , 31-C ) :   0.9566 B( 27-C , 28-H ) :   0.9629
B( 27-C , 29-H ) :   0.9521 B( 27-C , 30-H ) :   0.9455 B( 31-C , 32-H ) :   0.9491
B( 31-C , 33-H ) :   0.9624 B( 31-C , 34-H ) :   0.9632

Dispersion correction           -0.016633943
FINAL SINGLE POINT ENERGY      -640.968300255517
Dispersion correction             ... done (  0.1 sec)

DIPOLE MOMENT
-------------

Method             : SCF
Type of density    : Electron Density
Multiplicity       :   1
Irrep              :   0
Energy             :  -640.9516663129110157 Eh
Relativity type    :
Basis              : AO
                                X                 Y                 Z
Electronic contribution:     -7.762111472       1.308812807       4.547654913
Nuclear contribution   :      8.566787454      -1.470784705      -4.920259497
                        -----------------------------------------
Total Dipole Moment    :      0.804675982      -0.161971898      -0.372604584
                        -----------------------------------------
Magnitude (a.u.)       :      0.901428038
Magnitude (Debye)      :      2.291247984

VIBRATIONAL FREQUENCIES
-----------------------

Scaling factor for frequencies =  1.000000000  (already applied!)

     0:       0.00 cm**-1
     1:       0.00 cm**-1
     2:       0.00 cm**-1
     3:       0.00 cm**-1
     4:       0.00 cm**-1
     5:       0.00 cm**-1
     6:    -278.51 cm**-1  ***imaginary mode***
     7:     -55.96 cm**-1  ***imaginary mode***
     8:      35.36 cm**-1
     9:      50.11 cm**-1
    10:      51.82 cm**-1
    11:      79.15 cm**-1
    12:     122.83 cm**-1
    13:     172.39 cm**-1
    14:     184.31 cm**-1
    15:     200.19 cm**-1
    16:     212.30 cm**-1
    17:     224.69 cm**-1
    18:     255.29 cm**-1
    19:     266.56 cm**-1
    20:     330.41 cm**-1
    21:     351.32 cm**-1
    22:     399.31 cm**-1
    23:     417.95 cm**-1
    24:     473.44 cm**-1
    25:     495.07 cm**-1
    26:     550.91 cm**-1
    27:     568.71 cm**-1
    28:     580.62 cm**-1
    29:     600.45 cm**-1
    30:     625.02 cm**-1
    31:     631.87 cm**-1
    32:     652.41 cm**-1
    33:     706.86 cm**-1
    34:     736.87 cm**-1
    35:     741.19 cm**-1
    36:     762.47 cm**-1
    37:     791.83 cm**-1
    38:     808.36 cm**-1
    39:     829.11 cm**-1
    40:     841.01 cm**-1
    41:     868.81 cm**-1
    42:     900.41 cm**-1
    43:     902.01 cm**-1
    44:     916.60 cm**-1
    45:     976.47 cm**-1
    46:     988.52 cm**-1
    47:    1009.00 cm**-1
    48:    1013.56 cm**-1
    49:    1027.20 cm**-1
    50:    1074.11 cm**-1
    51:    1081.67 cm**-1
    52:    1089.24 cm**-1
    53:    1089.90 cm**-1
    54:    1122.58 cm**-1
    55:    1123.91 cm**-1
    56:    1130.21 cm**-1
    57:    1153.48 cm**-1
    58:    1185.61 cm**-1
    59:    1187.39 cm**-1
    60:    1194.03 cm**-1
    61:    1209.28 cm**-1
    62:    1219.29 cm**-1
    63:    1259.64 cm**-1
    64:    1266.53 cm**-1
    65:    1282.17 cm**-1
    66:    1308.24 cm**-1
    67:    1331.42 cm**-1
    68:    1357.85 cm**-1
    69:    1376.02 cm**-1
    70:    1436.19 cm**-1
    71:    1457.22 cm**-1
    72:    1470.54 cm**-1
    73:    1483.28 cm**-1
    74:    1489.74 cm**-1
    75:    1497.11 cm**-1
    76:    1500.45 cm**-1
    77:    1500.67 cm**-1
    78:    1511.44 cm**-1
    79:    1517.84 cm**-1
    80:    1524.26 cm**-1
    81:    1532.98 cm**-1
    82:    1547.57 cm**-1
    83:    1551.75 cm**-1
    84:    1613.00 cm**-1
    85:    1662.97 cm**-1
    86:    1694.82 cm**-1
    87:    2565.74 cm**-1
    88:    3013.12 cm**-1
    89:    3018.33 cm**-1
    90:    3074.32 cm**-1
    91:    3116.54 cm**-1
    92:    3122.34 cm**-1
    93:    3154.59 cm**-1
    94:    3174.53 cm**-1
    95:    3188.22 cm**-1
    96:    3193.37 cm**-1
    97:    3207.79 cm**-1
    98:    3216.22 cm**-1
    99:    3227.70 cm**-1
   100:    3241.76 cm**-1
   101:    3274.39 cm**-1
   102:    3284.41 cm**-1
   103:    3304.67 cm**-1
   104:    3539.31 cm**-1

IR SPECTRUM
-----------

 Mode   freq       eps      Int      T**2         TX        TY        TZ
       cm**-1   L/(mol*cm) km/mol    a.u.
----------------------------------------------------------------------------
  8:     35.36   0.000084    0.42  0.000739  ( 0.017996 -0.003953 -0.019987)
  9:     50.11   0.000093    0.47  0.000582  (-0.002723 -0.011412  0.021085)
 10:     51.82   0.000286    1.45  0.001723  (-0.028858  0.028427 -0.009080)
 11:     79.15   0.000046    0.23  0.000180  (-0.011983  0.003455  0.004898)
 12:    122.83   0.000321    1.62  0.000817  (-0.017628  0.019433 -0.011327)
 13:    172.39   0.001143    5.77  0.002068  ( 0.016169 -0.036703 -0.021439)
 14:    184.31   0.000058    0.29  0.000098  ( 0.008725 -0.003255 -0.003356)
 15:    200.19   0.000511    2.58  0.000797  (-0.011914  0.025375  0.003355)
 16:    212.30   0.001372    6.93  0.002017  ( 0.022574 -0.022311 -0.031773)
 17:    224.69   0.000209    1.05  0.000290  ( 0.007380 -0.006429  0.013930)
 18:    255.29   0.000176    0.89  0.000215  ( 0.008609 -0.010657 -0.005190)
 19:    266.56   0.001578    7.97  0.001847  (-0.021254  0.037182 -0.003624)
 20:    330.41   0.003375   17.06  0.003187  (-0.049030  0.027453 -0.005468)
 21:    351.32   0.000300    1.52  0.000267  (-0.010489 -0.008507 -0.009184)
 22:    399.31   0.003175   16.04  0.002481  (-0.041675 -0.018821 -0.019752)
 23:    417.95   0.000272    1.37  0.000203  ( 0.007247 -0.011571  0.004072)
 24:    473.44   0.001191    6.02  0.000785  (-0.001974 -0.026225 -0.009648)
 25:    495.07   0.001719    8.69  0.001084  ( 0.011710 -0.029215 -0.009640)
 26:    550.91   0.000397    2.00  0.000225  (-0.008453  0.007482 -0.009861)
 27:    568.71   0.003760   19.00  0.002063  ( 0.036148  0.010931  0.025234)
 28:    580.62   0.001282    6.48  0.000689  (-0.011056  0.020495 -0.012117)
 29:    600.45   0.014335   72.44  0.007450  ( 0.045415  0.068771  0.025653)
 30:    625.02   0.002727   13.78  0.001361  (-0.020191 -0.030702  0.003319)
 31:    631.87   0.004015   20.29  0.001983  (-0.002352 -0.038554 -0.022152)
 32:    652.41   0.003222   16.28  0.001541  (-0.013814 -0.022723 -0.028882)
 33:    706.86   0.005109   25.82  0.002256  ( 0.012443  0.045825 -0.000998)
 34:    736.87   0.002043   10.32  0.000865  (-0.015603  0.020642 -0.013985)
 35:    741.19   0.009680   48.92  0.004076  ( 0.035877 -0.022795 -0.047634)
 36:    762.47   0.004279   21.63  0.001751  ( 0.030127 -0.014365  0.025247)
 37:    791.83   0.001622    8.20  0.000639  (-0.014563  0.011293 -0.017306)
 38:    808.36   0.001869    9.45  0.000722  (-0.018324 -0.004738 -0.019064)
 39:    829.11   0.002565   12.96  0.000965  ( 0.012988 -0.024281 -0.014391)
 40:    841.01   0.001351    6.83  0.000501  ( 0.007694  0.021023 -0.000497)
 41:    868.81   0.001479    7.47  0.000531  ( 0.001053 -0.016230 -0.016326)
 42:    900.41   0.000586    2.96  0.000203  (-0.009639  0.009318  0.004847)
 43:    902.01   0.000528    2.67  0.000183  (-0.000848  0.013361  0.001875)
 44:    916.60   0.000072    0.36  0.000024  ( 0.002661 -0.001635  0.003829)
 45:    976.47   0.000328    1.66  0.000105  ( 0.003644 -0.009549  0.000681)
 46:    988.52   0.010671   53.93  0.003369  ( 0.023773 -0.034912 -0.039810)
 47:   1009.00   0.002461   12.44  0.000761  (-0.024539  0.012549  0.001289)
 48:   1013.56   0.000108    0.54  0.000033  (-0.004344  0.002644  0.002695)
 49:   1027.20   0.004293   21.70  0.001304  (-0.007327 -0.035310 -0.001961)
 50:   1074.11   0.009146   46.22  0.002657  ( 0.013675 -0.048017  0.012826)
 51:   1081.67   0.001623    8.20  0.000468  ( 0.013584 -0.013105  0.010582)
 52:   1089.24   0.001110    5.61  0.000318  ( 0.011771 -0.013140 -0.002579)
 53:   1089.90   0.001462    7.39  0.000419  ( 0.004630 -0.017046  0.010327)
 54:   1122.58   0.004028   20.36  0.001120  ( 0.029336 -0.007185  0.014407)
 55:   1123.91   0.001209    6.11  0.000336  (-0.002786  0.001659 -0.018033)
 56:   1130.21   0.001876    9.48  0.000518  (-0.003236 -0.004526  0.022070)
 57:   1153.48   0.000477    2.41  0.000129  ( 0.009122  0.004360  0.005184)
 58:   1185.61   0.002014   10.18  0.000530  ( 0.000982  0.019139  0.012763)
 59:   1187.39   0.001166    5.89  0.000306  (-0.014700  0.006960  0.006477)
 60:   1194.03   0.001753    8.86  0.000458  (-0.003605  0.015021  0.014816)
 61:   1209.28   0.002510   12.69  0.000648  ( 0.010076  0.023152 -0.003197)
 62:   1219.29   0.005393   27.26  0.001380  (-0.027805  0.023763  0.006524)
 63:   1259.64   0.000388    1.96  0.000096  (-0.000506 -0.001457 -0.009688)
 64:   1266.53   0.006929   35.02  0.001707  (-0.019472  0.028953 -0.022134)
 65:   1282.17   0.005271   26.64  0.001283  (-0.010335 -0.030098  0.016437)
 66:   1308.24   0.005437   27.48  0.001297  (-0.009394 -0.029177  0.018907)
 67:   1331.42   0.002428   12.27  0.000569  (-0.006102  0.022760  0.003725)
 68:   1357.85   0.003516   17.77  0.000808  ( 0.012010 -0.013374 -0.022023)
 69:   1376.02   0.008903   44.99  0.002019  ( 0.035912 -0.008351  0.025684)
 70:   1436.19   0.004330   21.88  0.000941  ( 0.018123 -0.014727  0.019890)
 71:   1457.22   0.000213    1.08  0.000046  (-0.000833 -0.006665 -0.000727)
 72:   1470.54   0.001934    9.77  0.000410  (-0.011862 -0.015453  0.005561)
 73:   1483.28   0.000482    2.44  0.000101  (-0.003678  0.006075  0.007144)
 74:   1489.74   0.006126   30.96  0.001283  ( 0.010789 -0.029326  0.017518)
 75:   1497.11   0.003002   15.17  0.000626  ( 0.009116  0.003103 -0.023087)
 76:   1500.45   0.002351   11.88  0.000489  (-0.014486  0.013123  0.010342)
 77:   1500.67   0.001713    8.66  0.000356  (-0.009220 -0.010491 -0.012693)
 78:   1511.44   0.001000    5.05  0.000206  (-0.003566  0.010564 -0.009058)
 79:   1517.84   0.003960   20.01  0.000814  ( 0.018565  0.021351 -0.003706)
 80:   1524.26   0.007959   40.22  0.001629  (-0.013999 -0.037667  0.003820)
 81:   1532.98   0.000853    4.31  0.000174  (-0.001271 -0.001004 -0.013081)
 82:   1547.57   0.006844   34.58  0.001380  (-0.026705  0.004196  0.025480)
 83:   1551.75   0.002554   12.91  0.000514  ( 0.010478  0.019367  0.005359)
 84:   1613.00   0.004428   22.38  0.000857  ( 0.024509 -0.006612  0.014567)
 85:   1662.97   0.001289    6.51  0.000242  ( 0.007380 -0.008548 -0.010690)
 86:   1694.82   0.001479    7.47  0.000272  (-0.010796 -0.009328  0.008290)
 87:   2565.74   0.027482  138.88  0.003343  ( 0.029311  0.023101  0.044156)
 88:   3013.12   0.008998   45.47  0.000932  ( 0.013207  0.009189  0.025943)
 89:   3018.33   0.023858  120.57  0.002467  (-0.009628  0.043415  0.022117)
 90:   3074.32   0.009339   47.19  0.000948  (-0.027395 -0.013206 -0.004799)
 91:   3116.54   0.006256   31.62  0.000626  ( 0.023627  0.007042 -0.004317)
 92:   3122.34   0.005863   29.63  0.000586  (-0.015788 -0.010472  0.015068)
 93:   3154.59   0.003638   18.39  0.000360  ( 0.007760 -0.011679 -0.012780)
 94:   3174.53   0.003611   18.25  0.000355  (-0.001231 -0.002480  0.018637)
 95:   3188.22   0.002500   12.63  0.000245  ( 0.001228 -0.013477  0.007843)
 96:   3193.37   0.000862    4.36  0.000084  ( 0.008292  0.001125 -0.003776)
 97:   3207.79   0.000957    4.83  0.000093  (-0.001354  0.007896  0.005373)
 98:   3216.22   0.000413    2.08  0.000040  ( 0.005044  0.002467 -0.002916)
 99:   3227.70   0.005135   25.95  0.000496  (-0.008324  0.013390  0.015744)
100:   3241.76   0.005501   27.80  0.000530  (-0.012443 -0.016386  0.010306)
101:   3274.39   0.001002    5.07  0.000096  ( 0.001706 -0.008915  0.003626)
102:   3284.41   0.001026    5.19  0.000098  ( 0.005986  0.007804  0.000884)
103:   3304.67   0.001557    7.87  0.000147  (-0.006986  0.007009 -0.007006)
104:   3539.31   0.173524  876.92  0.015300  (-0.012886  0.118903  0.031558)

--------------------------
THERMOCHEMISTRY AT 298.15K
--------------------------

Temperature         ...   298.15 K
Pressure            ...     1.00 atm
Total Mass          ...   214.12 AMU
Quasi RRHO          ...     True
Cut-Off Frequency   ...     1.00 cm^-1

Throughout the following assumptions are being made:
  (1) The electronic state is orbitally nondegenerate
  (2) There are no thermally accessible electronically excited states
  (3) Hindered rotations indicated by low frequency modes are not
      treated as such but are treated as vibrations and this may
      cause some error
  (4) All equations used are the standard statistical mechanics
      equations for an ideal gas
  (5) All vibrations are strictly harmonic

freq.      35.36  E(vib)   ...       0.54
freq.      50.11  E(vib)   ...       0.52
freq.      51.82  E(vib)   ...       0.52
freq.      79.15  E(vib)   ...       0.49
freq.     122.83  E(vib)   ...       0.43
freq.     172.39  E(vib)   ...       0.38
freq.     184.31  E(vib)   ...       0.37
freq.     200.19  E(vib)   ...       0.35
freq.     212.30  E(vib)   ...       0.34
freq.     224.69  E(vib)   ...       0.33
freq.     255.29  E(vib)   ...       0.30
freq.     266.56  E(vib)   ...       0.29
freq.     330.41  E(vib)   ...       0.24
freq.     351.32  E(vib)   ...       0.23
freq.     399.31  E(vib)   ...       0.19
freq.     417.95  E(vib)   ...       0.18
freq.     473.44  E(vib)   ...       0.15
freq.     495.07  E(vib)   ...       0.14
freq.     550.91  E(vib)   ...       0.12
freq.     568.71  E(vib)   ...       0.11
freq.     580.62  E(vib)   ...       0.11
freq.     600.45  E(vib)   ...       0.10
freq.     625.02  E(vib)   ...       0.09
freq.     631.87  E(vib)   ...       0.09
freq.     652.41  E(vib)   ...       0.08
freq.     706.86  E(vib)   ...       0.07
freq.     736.87  E(vib)   ...       0.06
freq.     741.19  E(vib)   ...       0.06
freq.     762.47  E(vib)   ...       0.06
freq.     791.83  E(vib)   ...       0.05
freq.     808.36  E(vib)   ...       0.05
freq.     829.11  E(vib)   ...       0.04
freq.     841.01  E(vib)   ...       0.04
freq.     868.81  E(vib)   ...       0.04
freq.     900.41  E(vib)   ...       0.03
freq.     902.01  E(vib)   ...       0.03
freq.     916.60  E(vib)   ...       0.03
freq.     976.47  E(vib)   ...       0.03
freq.     988.52  E(vib)   ...       0.02
freq.    1009.00  E(vib)   ...       0.02
freq.    1013.56  E(vib)   ...       0.02
freq.    1027.20  E(vib)   ...       0.02
freq.    1074.11  E(vib)   ...       0.02
freq.    1081.67  E(vib)   ...       0.02
freq.    1089.24  E(vib)   ...       0.02
freq.    1089.90  E(vib)   ...       0.02
freq.    1122.58  E(vib)   ...       0.01
freq.    1123.91  E(vib)   ...       0.01
freq.    1130.21  E(vib)   ...       0.01
freq.    1153.48  E(vib)   ...       0.01
freq.    1185.61  E(vib)   ...       0.01
freq.    1187.39  E(vib)   ...       0.01
freq.    1194.03  E(vib)   ...       0.01
freq.    1209.28  E(vib)   ...       0.01
freq.    1219.29  E(vib)   ...       0.01
freq.    1259.64  E(vib)   ...       0.01
freq.    1266.53  E(vib)   ...       0.01
freq.    1282.17  E(vib)   ...       0.01
freq.    1308.24  E(vib)   ...       0.01
freq.    1331.42  E(vib)   ...       0.01
freq.    1357.85  E(vib)   ...       0.01
freq.    1376.02  E(vib)   ...       0.01
freq.    1436.19  E(vib)   ...       0.00
freq.    1457.22  E(vib)   ...       0.00
freq.    1470.54  E(vib)   ...       0.00
freq.    1483.28  E(vib)   ...       0.00
freq.    1489.74  E(vib)   ...       0.00
freq.    1497.11  E(vib)   ...       0.00
freq.    1500.45  E(vib)   ...       0.00
freq.    1500.67  E(vib)   ...       0.00
freq.    1511.44  E(vib)   ...       0.00
freq.    1517.84  E(vib)   ...       0.00
freq.    1524.26  E(vib)   ...       0.00
freq.    1532.98  E(vib)   ...       0.00
freq.    1547.57  E(vib)   ...       0.00
freq.    1551.75  E(vib)   ...       0.00
freq.    1613.00  E(vib)   ...       0.00
freq.    1662.97  E(vib)   ...       0.00
freq.    1694.82  E(vib)   ...       0.00
freq.    2565.74  E(vib)   ...       0.00
freq.    3013.12  E(vib)   ...       0.00
freq.    3018.33  E(vib)   ...       0.00
freq.    3074.32  E(vib)   ...       0.00
freq.    3116.54  E(vib)   ...       0.00
freq.    3122.34  E(vib)   ...       0.00
freq.    3154.59  E(vib)   ...       0.00
freq.    3174.53  E(vib)   ...       0.00
freq.    3188.22  E(vib)   ...       0.00
freq.    3193.37  E(vib)   ...       0.00
freq.    3207.79  E(vib)   ...       0.00
freq.    3216.22  E(vib)   ...       0.00
freq.    3227.70  E(vib)   ...       0.00
freq.    3241.76  E(vib)   ...       0.00
freq.    3274.39  E(vib)   ...       0.00
freq.    3284.41  E(vib)   ...       0.00
freq.    3304.67  E(vib)   ...       0.00
freq.    3539.31  E(vib)   ...       0.00

------------
INNER ENERGY
------------

The inner energy is: U= E(el) + E(ZPE) + E(vib) + E(rot) + E(trans)
    E(el)   - is the total energy from the electronic structure calculation
              = E(kin-el) + E(nuc-el) + E(el-el) + E(nuc-nuc)
    E(ZPE)  - the the zero temperature vibrational energy from the frequency calculation
    E(vib)  - the the finite temperature correction to E(ZPE) due to population
              of excited vibrational states
    E(rot)  - is the rotational thermal energy
    E(trans)- is the translational thermal energy

Summary of contributions to the inner energy U:
Electronic energy                ...   -640.96830026 Eh
Zero point energy                ...      0.29685545 Eh     186.28 kcal/mol
Thermal vibrational correction   ...      0.01221996 Eh       7.67 kcal/mol
Thermal rotational correction    ...      0.00141627 Eh       0.89 kcal/mol
Thermal translational correction ...      0.00141627 Eh       0.89 kcal/mol
-----------------------------------------------------------------------
Total thermal energy                   -640.65639230 Eh

Summary of corrections to the electronic energy:
(perhaps to be used in another calculation)
Total thermal correction                  0.01505250 Eh       9.45 kcal/mol
Non-thermal (ZPE) correction              0.29685545 Eh     186.28 kcal/mol
-----------------------------------------------------------------------
Total correction                          0.31190795 Eh     195.72 kcal/mol

--------
ENTHALPY
--------

The enthalpy is H = U + kB*T
                kB is Boltzmann's constant
Total thermal energy              ...   -640.65639230 Eh
Thermal Enthalpy correction       ...      0.00094421 Eh       0.59 kcal/mol
-----------------------------------------------------------------------
Total Enthalpy                    ...   -640.65544809 Eh

Note: Only C1 symmetry has been detected, increase convergence thresholds

Rotational constants in cm-1:     0.028020     0.011461     0.010050

                      ***********************HURRAY********************
                             ****ORCA TERMINATED NORMALLY****
TOTAL RUN TIME: 0 days 1 hours 25 minutes 27 seconds 170 msec
