                         Program Version 6.0.1  -  RELEASE   -
|  1> # Automatically generated ORCA input
|  2>
|  3> # Number of cores
|  4> %pal nprocs 24 end
|  5> # RAM per core
|  6> %maxcore 2560
|  7>
|  8> ! wB97X-D3
|  9> ! 6-31G**
| 10> ! TightSCF
| 11> ! Freq
| 12> ! NoSym
| 13> ! IRC
| 14>
| 15> %geom
| 16>     Calc_Hess true
| 17>     end
| 18>
| 19> %geom
| 20>   Calc_Hess true
| 21> end
| 22>
| 23>
| 24> *xyz 0 1
| 25> H         1.31467300      0.11213300      2.67179500
| 26> C         2.10352400      0.08548400      1.92659100
| 27> C         2.78823000      1.24806400      1.59503300
| 28> C         2.43479000     -1.10557800      1.29320000
| 29> C         3.81886800      1.26670400      0.64291600
| 30> H         2.51166400      2.17875200      2.08350500
| 31> C         3.44245400     -1.11325300      0.33667300
| 32> H         1.91263700     -2.02584700      1.53584700
| 33> C         4.13980100      0.05355200      0.00161100
| 34> H         3.69293400     -2.04309200     -0.15911000
| 35> B         4.50562100      2.68757200      0.44199300
| 36> H         5.52964600      1.87819600     -0.90718600
| 37> H         5.64204400      2.65108000     -0.82017600
| 38> C         3.63864500      3.83672100     -0.13411400
| 39> C         2.36244500      3.79262100     -0.68430500
| 40> H         8.49465700     -0.61144300     -1.34813400
| 41> H         7.72659200      0.96854600     -1.46734500
| 42> H         5.54695400      0.18669000     -4.38282700
| 43> H         6.01147000      1.43019900     -3.22578500
| 44> H         7.95051500     -0.00973600     -3.71730100
| 45> H         7.06515200     -1.44393900     -3.23145400
| 46> N         5.17325900      0.04177700     -1.00370400
| 47> C         6.86572600      0.02025200      0.78708300
| 48> H         7.87275900     -0.32109600      1.04518200
| 49> H         6.86815700      1.11276700      0.78257600
| 50> H         6.18254700     -0.31446000      1.57101700
| 51> C         6.49288100     -2.08913000     -0.45281400
| 52> C         1.98688600      5.09781200     -1.06410000
| 53> H         1.77446900      2.89025200     -0.78204600
| 54> C         3.04661400      5.91967500     -0.74257700
| 55> H         1.05775100      5.41109800     -1.51737600
| 56> H         3.17178900      6.98594000     -0.86887500
| 57> N         4.03246900      5.16517000     -0.18449900
| 58> C         5.30375900      5.67847800      0.27785400
| 59> H         5.43711700      5.48470300      1.34486300
| 60> H         6.13343600      5.21494500     -0.26378000
| 61> H         5.33568400      6.75572600      0.10762500
| 62> C         6.47998200     -0.55189600     -0.58639700
| 63> C         4.70048700     -0.07776200     -2.41872100
| 64> C         7.55417800     -0.10761500     -1.59662600
| 65> C         5.85463600      0.35048200     -3.34447600
| 66> C         7.16376100     -0.36793300     -3.04535000
| 67> H         5.75656200     -2.42622300      0.27949000
| 68> H         6.30263200     -2.60223400     -1.39579000
| 69> H         7.47691200     -2.41088500     -0.09670700
| 70> C         4.19034600     -1.47290700     -2.83763000
| 71> H         3.84518900     -1.42908100     -3.87567200
| 72> H         4.95549900     -2.24770100     -2.78061800
| 73> H         3.33953200     -1.78197400     -2.22726300
| 74> C         3.53913000      0.90610100     -2.63318000
| 75> H         2.65294300      0.61231300     -2.06510200
| 76> H         3.80241000      1.92587300     -2.34217100
| 77> H         3.27188500      0.91587700     -3.69426500
| 78> H         5.41698100      2.96609400      1.17991200
| 79> *
| 80>
| 81>
| 82>                          ****END OF INPUT****

CARTESIAN COORDINATES (ANGSTROEM)
---------------------------------
  H      1.314673    0.112133    2.671795
  C      2.103524    0.085484    1.926591
  C      2.788230    1.248064    1.595033
  C      2.434790   -1.105578    1.293200
  C      3.818868    1.266704    0.642916
  H      2.511664    2.178752    2.083505
  C      3.442454   -1.113253    0.336673
  H      1.912637   -2.025847    1.535847
  C      4.139801    0.053552    0.001611
  H      3.692934   -2.043092   -0.159110
  B      4.505621    2.687572    0.441993
  H      5.529646    1.878196   -0.907186
  H      5.642044    2.651080   -0.820176
  C      3.638645    3.836721   -0.134114
  C      2.362445    3.792621   -0.684305
  H      8.494657   -0.611443   -1.348134
  H      7.726592    0.968546   -1.467345
  H      5.546954    0.186690   -4.382827
  H      6.011470    1.430199   -3.225785
  H      7.950515   -0.009736   -3.717301
  H      7.065152   -1.443939   -3.231454
  N      5.173259    0.041777   -1.003704
  C      6.865726    0.020252    0.787083
  H      7.872759   -0.321096    1.045182
  H      6.868157    1.112767    0.782576
  H      6.182547   -0.314460    1.571017
  C      6.492881   -2.089130   -0.452814
  C      1.986886    5.097812   -1.064100
  H      1.774469    2.890252   -0.782046
  C      3.046614    5.919675   -0.742577
  H      1.057751    5.411098   -1.517376
  H      3.171789    6.985940   -0.868875
  N      4.032469    5.165170   -0.184499
  C      5.303759    5.678478    0.277854
  H      5.437117    5.484703    1.344863
  H      6.133436    5.214945   -0.263780
  H      5.335684    6.755726    0.107625
  C      6.479982   -0.551896   -0.586397
  C      4.700487   -0.077762   -2.418721
  C      7.554178   -0.107615   -1.596626
  C      5.854636    0.350482   -3.344476
  C      7.163761   -0.367933   -3.045350
  H      5.756562   -2.426223    0.279490
  H      6.302632   -2.602234   -1.395790
  H      7.476912   -2.410885   -0.096707
  C      4.190346   -1.472907   -2.837630
  H      3.845189   -1.429081   -3.875672
  H      4.955499   -2.247701   -2.780618
  H      3.339532   -1.781974   -2.227263
  C      3.539130    0.906101   -2.633180
  H      2.652943    0.612313   -2.065102
  H      3.802410    1.925873   -2.342171
  H      3.271885    0.915877   -3.694265
  H      5.416981    2.966094    1.179912

 Total Charge           Charge          ....    0
 Multiplicity           Mult            ....    1
 Number of Electrons    NEL             ....  170
 Basis Dimension        Dim             ....  477

ORBITAL ENERGIES
----------------

  NO   OCC          E(Eh)            E(eV)
   0   2.0000     -14.472812      -393.8252
   1   2.0000     -14.430511      -392.6742
   2   2.0000     -10.325626      -280.9746
   3   2.0000     -10.324756      -280.9509
   4   2.0000     -10.319670      -280.8125
   5   2.0000     -10.310796      -280.5710
   6   2.0000     -10.295393      -280.1519
   7   2.0000     -10.280669      -279.7512
   8   2.0000     -10.279225      -279.7119
   9   2.0000     -10.279162      -279.7102
  10   2.0000     -10.279024      -279.7065
  11   2.0000     -10.277512      -279.6653
  12   2.0000     -10.276937      -279.6497
  13   2.0000     -10.276552      -279.6392
  14   2.0000     -10.268605      -279.4229
  15   2.0000     -10.268088      -279.4089
  16   2.0000     -10.266538      -279.3667
  17   2.0000     -10.265602      -279.3412
  18   2.0000     -10.265424      -279.3364
  19   2.0000     -10.262228      -279.2494
  20   2.0000     -10.255512      -279.0667
  21   2.0000     -10.254009      -279.0258
  22   2.0000      -6.830706      -185.8730
  23   2.0000      -1.087901       -29.6033
  24   2.0000      -1.048467       -28.5302
  25   2.0000      -0.959276       -26.1032
  26   2.0000      -0.924038       -25.1444
  27   2.0000      -0.914057       -24.8728
  28   2.0000      -0.905361       -24.6361
  29   2.0000      -0.856451       -23.3052
  30   2.0000      -0.851895       -23.1812
  31   2.0000      -0.826850       -22.4997
  32   2.0000      -0.817631       -22.2489
  33   2.0000      -0.800099       -21.7718
  34   2.0000      -0.791415       -21.5355
  35   2.0000      -0.790188       -21.5021
  36   2.0000      -0.784826       -21.3562
  37   2.0000      -0.725616       -19.7450
  38   2.0000      -0.708798       -19.2874
  39   2.0000      -0.689684       -18.7672
  40   2.0000      -0.681722       -18.5506
  41   2.0000      -0.666556       -18.1379
  42   2.0000      -0.657573       -17.8935
  43   2.0000      -0.632947       -17.2234
  44   2.0000      -0.621046       -16.8995
  45   2.0000      -0.604515       -16.4497
  46   2.0000      -0.591384       -16.0924
  47   2.0000      -0.572762       -15.5856
  48   2.0000      -0.570879       -15.5344
  49   2.0000      -0.562880       -15.3167
  50   2.0000      -0.555886       -15.1264
  51   2.0000      -0.548497       -14.9254
  52   2.0000      -0.534607       -14.5474
  53   2.0000      -0.527662       -14.3584
  54   2.0000      -0.524146       -14.2627
  55   2.0000      -0.516295       -14.0491
  56   2.0000      -0.514387       -13.9972
  57   2.0000      -0.506863       -13.7924
  58   2.0000      -0.501813       -13.6550
  59   2.0000      -0.498001       -13.5513
  60   2.0000      -0.490750       -13.3540
  61   2.0000      -0.485120       -13.2008
  62   2.0000      -0.480916       -13.0864
  63   2.0000      -0.471658       -12.8345
  64   2.0000      -0.468582       -12.7508
  65   2.0000      -0.466352       -12.6901
  66   2.0000      -0.461152       -12.5486
  67   2.0000      -0.455646       -12.3987
  68   2.0000      -0.452843       -12.3225
  69   2.0000      -0.450230       -12.2514
  70   2.0000      -0.448624       -12.2077
  71   2.0000      -0.442954       -12.0534
  72   2.0000      -0.433553       -11.7976
  73   2.0000      -0.432734       -11.7753
  74   2.0000      -0.416789       -11.3414
  75   2.0000      -0.411343       -11.1932
  76   2.0000      -0.405850       -11.0438
  77   2.0000      -0.397822       -10.8253
  78   2.0000      -0.392150       -10.6710
  79   2.0000      -0.381565       -10.3829
  80   2.0000      -0.322384        -8.7725
  81   2.0000      -0.312863        -8.5134
  82   2.0000      -0.308597        -8.3974
  83   2.0000      -0.304961        -8.2984
  84   2.0000      -0.277144        -7.5415
  85   0.0000       0.072364         1.9691
  86   0.0000       0.081904         2.2287
  87   0.0000       0.086140         2.3440
  88   0.0000       0.157065         4.2740
  89   0.0000       0.165407         4.5010

MULLIKEN ATOMIC CHARGES
-----------------------
   0 H :    0.117289
   1 C :   -0.106044
   2 C :   -0.175953
   3 C :   -0.144954
   4 C :    0.044256
   5 H :    0.119548
   6 C :   -0.106395
   7 H :    0.117283
   8 C :    0.158104
   9 H :    0.109771
  10 B :   -0.041288
  11 H :    0.081269
  12 H :    0.013009
  13 C :    0.210832
  14 C :   -0.181835
  15 H :    0.107777
  16 H :    0.106210
  17 H :    0.108306
  18 H :    0.108885
  19 H :    0.117591
  20 H :    0.104537
  21 N :   -0.556300
  22 C :   -0.335379
  23 H :    0.110470
  24 H :    0.121976
  25 H :    0.132551
  26 C :   -0.330922
  27 C :   -0.192468
  28 H :    0.113238
  29 C :    0.051261
  30 H :    0.110959
  31 H :    0.124777
  32 N :   -0.444359
  33 C :   -0.201665
  34 H :    0.152072
  35 H :    0.139373
  36 H :    0.132523
  37 C :    0.148386
  38 C :    0.147462
  39 C :   -0.193458
  40 C :   -0.194041
  41 C :   -0.228104
  42 H :    0.119531
  43 H :    0.105154
  44 H :    0.111624
  45 C :   -0.331353
  46 H :    0.112411
  47 H :    0.104445
  48 H :    0.119012
  49 C :   -0.336644
  50 H :    0.126733
  51 H :    0.128660
  52 H :    0.111081
  53 H :   -0.047203
Sum of atomic charges:   -0.0000000

LOEWDIN ATOMIC CHARGES
----------------------
   0 H :    0.078272
   1 C :   -0.081318
   2 C :   -0.065052
   3 C :   -0.086746
   4 C :   -0.034702
   5 H :    0.081380
   6 C :   -0.094217
   7 H :    0.077536
   8 C :    0.021592
   9 H :    0.076669
  10 B :   -0.179011
  11 H :    0.115503
  12 H :    0.047303
  13 C :   -0.059622
  14 C :   -0.104061
  15 H :    0.071242
  16 H :    0.068568
  17 H :    0.071521
  18 H :    0.069569
  19 H :    0.074168
  20 H :    0.065439
  21 N :   -0.135961
  22 C :   -0.200050
  23 H :    0.073578
  24 H :    0.077695
  25 H :    0.080873
  26 C :   -0.214505
  27 C :   -0.149428
  28 H :    0.076498
  29 C :   -0.063987
  30 H :    0.074732
  31 H :    0.073438
  32 N :    0.027592
  33 C :   -0.111654
  34 H :    0.084807
  35 H :    0.078924
  36 H :    0.082470
  37 C :    0.033738
  38 C :    0.033711
  39 C :   -0.124283
  40 C :   -0.124058
  41 C :   -0.135244
  42 H :    0.076124
  43 H :    0.066791
  44 H :    0.074052
  45 C :   -0.214791
  46 H :    0.074538
  47 H :    0.066424
  48 H :    0.075746
  49 C :   -0.201068
  50 H :    0.077917
  51 H :    0.080475
  52 H :    0.074247
  53 H :   -0.003375

  Mayer bond orders larger than 0.100000
B(  0-H ,  1-C ) :   0.9491 B(  1-C ,  2-C ) :   1.4446 B(  1-C ,  3-C ) :   1.4446
B(  2-C ,  4-C ) :   1.4018 B(  2-C ,  5-H ) :   0.9384 B(  3-C ,  6-C ) :   1.4380
B(  3-C ,  7-H ) :   0.9468 B(  4-C ,  8-C ) :   1.4124 B(  4-C , 10-B ) :   0.9632
B(  6-C ,  8-C ) :   1.4032 B(  6-C ,  9-H ) :   0.9401 B(  8-C , 21-N ) :   0.8984
B( 10-B , 11-H ) :   0.1289 B( 10-B , 12-H ) :   0.2054 B( 10-B , 13-C ) :   1.0602
B( 10-B , 53-H ) :   0.9401 B( 11-H , 12-H ) :   0.7415 B( 11-H , 21-N ) :   0.1040
B( 13-C , 14-C ) :   1.4702 B( 13-C , 32-N ) :   1.0628 B( 14-C , 27-C ) :   1.3912
B( 14-C , 28-H ) :   0.9472 B( 15-H , 39-C ) :   0.9538 B( 16-H , 39-C ) :   0.9534
B( 17-H , 40-C ) :   0.9538 B( 18-H , 40-C ) :   0.9531 B( 19-H , 41-C ) :   0.9581
B( 20-H , 41-C ) :   0.9551 B( 21-N , 37-C ) :   0.9095 B( 21-N , 38-C ) :   0.9068
B( 22-C , 23-H ) :   0.9588 B( 22-C , 24-H ) :   0.9530 B( 22-C , 25-H ) :   0.9539
B( 22-C , 37-C ) :   1.0009 B( 26-C , 37-C ) :   0.9828 B( 26-C , 42-H ) :   0.9555
B( 26-C , 43-H ) :   0.9578 B( 26-C , 44-H ) :   0.9571 B( 27-C , 29-C ) :   1.5329
B( 27-C , 30-H ) :   0.9534 B( 29-C , 31-H ) :   0.9453 B( 29-C , 32-N ) :   1.1915
B( 32-N , 33-C ) :   0.9353 B( 33-C , 34-H ) :   0.9518 B( 33-C , 35-H ) :   0.9542
B( 33-C , 36-H ) :   0.9630 B( 37-C , 39-C ) :   0.9823 B( 38-C , 40-C ) :   0.9823
B( 38-C , 45-C ) :   0.9823 B( 38-C , 49-C ) :   0.9996 B( 39-C , 41-C ) :   0.9959
B( 40-C , 41-C ) :   0.9955 B( 45-C , 46-H ) :   0.9569 B( 45-C , 47-H ) :   0.9579
B( 45-C , 48-H ) :   0.9556 B( 49-C , 50-H ) :   0.9544 B( 49-C , 51-H ) :   0.9475
B( 49-C , 52-H ) :   0.9588

Dispersion correction           -0.034603054
FINAL SINGLE POINT ENERGY      -914.920914647180
Dispersion correction             ... done (  0.1 sec)

DIPOLE MOMENT
-------------

Method             : SCF
Type of density    : Electron Density
Multiplicity       :   1
Irrep              :   0
Energy             :  -914.8863115929866581 Eh
Relativity type    :
Basis              : AO
                                X                 Y                 Z
Electronic contribution:    -13.605030714       9.314945251       9.220144236
Nuclear contribution   :     14.337618566      -9.364035508      -9.519684452
                        -----------------------------------------
Total Dipole Moment    :      0.732587852      -0.049090257      -0.299540215
                        -----------------------------------------
Magnitude (a.u.)       :      0.792981182
Magnitude (Debye)      :      2.015597983

VIBRATIONAL FREQUENCIES
-----------------------

Scaling factor for frequencies =  1.000000000  (already applied!)

     0:       0.00 cm**-1
     1:       0.00 cm**-1
     2:       0.00 cm**-1
     3:       0.00 cm**-1
     4:       0.00 cm**-1
     5:       0.00 cm**-1
     6:    -353.94 cm**-1  ***imaginary mode***
     7:     -31.60 cm**-1  ***imaginary mode***
     8:      31.93 cm**-1
     9:      46.91 cm**-1
    10:      51.15 cm**-1
    11:      68.86 cm**-1
    12:      91.53 cm**-1
    13:      93.95 cm**-1
    14:     129.61 cm**-1
    15:     161.31 cm**-1
    16:     167.41 cm**-1
    17:     190.52 cm**-1
    18:     197.89 cm**-1
    19:     215.11 cm**-1
    20:     237.60 cm**-1
    21:     240.84 cm**-1
    22:     264.51 cm**-1
    23:     283.90 cm**-1
    24:     296.22 cm**-1
    25:     306.35 cm**-1
    26:     313.94 cm**-1
    27:     317.13 cm**-1
    28:     328.19 cm**-1
    29:     350.50 cm**-1
    30:     361.73 cm**-1
    31:     372.64 cm**-1
    32:     399.57 cm**-1
    33:     414.98 cm**-1
    34:     430.74 cm**-1
    35:     445.01 cm**-1
    36:     474.43 cm**-1
    37:     483.39 cm**-1
    38:     500.07 cm**-1
    39:     520.15 cm**-1
    40:     544.55 cm**-1
    41:     571.67 cm**-1
    42:     580.80 cm**-1
    43:     597.22 cm**-1
    44:     612.57 cm**-1
    45:     627.51 cm**-1
    46:     646.61 cm**-1
    47:     664.44 cm**-1
    48:     684.51 cm**-1
    49:     693.75 cm**-1
    50:     746.73 cm**-1
    51:     748.81 cm**-1
    52:     775.34 cm**-1
    53:     784.17 cm**-1
    54:     796.65 cm**-1
    55:     823.28 cm**-1
    56:     828.34 cm**-1
    57:     835.78 cm**-1
    58:     848.45 cm**-1
    59:     878.92 cm**-1
    60:     898.49 cm**-1
    61:     902.36 cm**-1
    62:     914.53 cm**-1
    63:     917.16 cm**-1
    64:     935.85 cm**-1
    65:     940.82 cm**-1
    66:     943.67 cm**-1
    67:     957.07 cm**-1
    68:     977.70 cm**-1
    69:     990.15 cm**-1
    70:     999.40 cm**-1
    71:    1016.04 cm**-1
    72:    1020.16 cm**-1
    73:    1021.75 cm**-1
    74:    1023.62 cm**-1
    75:    1031.78 cm**-1
    76:    1075.86 cm**-1
    77:    1079.02 cm**-1
    78:    1081.72 cm**-1
    79:    1084.81 cm**-1
    80:    1090.61 cm**-1
    81:    1091.66 cm**-1
    82:    1098.42 cm**-1
    83:    1118.82 cm**-1
    84:    1124.41 cm**-1
    85:    1143.08 cm**-1
    86:    1154.29 cm**-1
    87:    1186.97 cm**-1
    88:    1192.10 cm**-1
    89:    1196.53 cm**-1
    90:    1228.02 cm**-1
    91:    1239.85 cm**-1
    92:    1250.54 cm**-1
    93:    1262.16 cm**-1
    94:    1269.30 cm**-1
    95:    1271.89 cm**-1
    96:    1281.79 cm**-1
    97:    1298.51 cm**-1
    98:    1304.95 cm**-1
    99:    1322.44 cm**-1
   100:    1330.71 cm**-1
   101:    1339.07 cm**-1
   102:    1380.53 cm**-1
   103:    1384.40 cm**-1
   104:    1407.34 cm**-1
   105:    1408.38 cm**-1
   106:    1414.75 cm**-1
   107:    1424.78 cm**-1
   108:    1435.02 cm**-1
   109:    1436.99 cm**-1
   110:    1443.30 cm**-1
   111:    1472.21 cm**-1
   112:    1486.81 cm**-1
   113:    1488.03 cm**-1
   114:    1489.10 cm**-1
   115:    1493.76 cm**-1
   116:    1495.13 cm**-1
   117:    1498.52 cm**-1
   118:    1502.52 cm**-1
   119:    1507.99 cm**-1
   120:    1512.33 cm**-1
   121:    1517.48 cm**-1
   122:    1519.53 cm**-1
   123:    1522.23 cm**-1
   124:    1523.84 cm**-1
   125:    1532.08 cm**-1
   126:    1534.98 cm**-1
   127:    1542.49 cm**-1
   128:    1553.45 cm**-1
   129:    1612.70 cm**-1
   130:    1658.10 cm**-1
   131:    1688.66 cm**-1
   132:    2575.63 cm**-1
   133:    3068.25 cm**-1
   134:    3069.82 cm**-1
   135:    3079.81 cm**-1
   136:    3080.30 cm**-1
   137:    3084.48 cm**-1
   138:    3086.02 cm**-1
   139:    3090.68 cm**-1
   140:    3094.42 cm**-1
   141:    3122.64 cm**-1
   142:    3124.19 cm**-1
   143:    3132.17 cm**-1
   144:    3157.17 cm**-1
   145:    3164.52 cm**-1
   146:    3166.65 cm**-1
   147:    3170.02 cm**-1
   148:    3172.55 cm**-1
   149:    3186.52 cm**-1
   150:    3186.82 cm**-1
   151:    3186.95 cm**-1
   152:    3194.66 cm**-1
   153:    3208.64 cm**-1
   154:    3210.47 cm**-1
   155:    3222.33 cm**-1
   156:    3238.63 cm**-1
   157:    3263.73 cm**-1
   158:    3279.60 cm**-1
   159:    3287.84 cm**-1
   160:    3306.73 cm**-1
   161:    3625.97 cm**-1

IR SPECTRUM
-----------

 Mode   freq       eps      Int      T**2         TX        TY        TZ
       cm**-1   L/(mol*cm) km/mol    a.u.
----------------------------------------------------------------------------
  8:     31.93   0.000088    0.44  0.000856  (-0.001259  0.015666 -0.024687)
  9:     46.91   0.000005    0.02  0.000032  ( 0.005587 -0.000287  0.000860)
 10:     51.15   0.000086    0.43  0.000525  ( 0.007589 -0.012001 -0.017980)
 11:     68.86   0.000303    1.53  0.001372  ( 0.017541 -0.028997 -0.014940)
 12:     91.53   0.000085    0.43  0.000290  (-0.010461  0.008551 -0.010377)
 13:     93.95   0.000015    0.08  0.000050  (-0.004430  0.002205 -0.005038)
 14:    129.61   0.000003    0.02  0.000007  (-0.002383  0.001124 -0.000718)
 15:    161.31   0.001348    6.81  0.002607  (-0.017082  0.044009  0.019459)
 16:    167.41   0.000480    2.43  0.000895  (-0.010747  0.020417  0.019041)
 17:    190.52   0.000445    2.25  0.000728  (-0.011396  0.023590  0.006484)
 18:    197.89   0.000025    0.13  0.000040  (-0.000354 -0.005274  0.003486)
 19:    215.11   0.001200    6.06  0.001740  ( 0.019473 -0.026556 -0.025611)
 20:    237.60   0.000477    2.41  0.000627  ( 0.009086  0.005250 -0.022735)
 21:    240.84   0.000710    3.59  0.000921  ( 0.006654 -0.019822 -0.021986)
 22:    264.51   0.000027    0.14  0.000032  ( 0.003103 -0.004561  0.001052)
 23:    283.90   0.000119    0.60  0.000131  ( 0.008208 -0.007774 -0.001831)
 24:    296.22   0.000058    0.29  0.000061  (-0.000466 -0.002168 -0.007491)
 25:    306.35   0.000562    2.84  0.000573  ( 0.021551 -0.009101 -0.005037)
 26:    313.94   0.000117    0.59  0.000116  (-0.006099  0.007707  0.004443)
 27:    317.13   0.000118    0.60  0.000116  (-0.005238  0.006860  0.006448)
 28:    328.19   0.000255    1.29  0.000242  (-0.014394  0.003976 -0.004413)
 29:    350.50   0.000283    1.43  0.000252  (-0.012869  0.006108 -0.006989)
 30:    361.73   0.000193    0.97  0.000166  ( 0.011949 -0.004507 -0.001801)
 31:    372.64   0.000801    4.05  0.000670  ( 0.000103  0.025719  0.002992)
 32:    399.57   0.000016    0.08  0.000013  (-0.002624 -0.002339  0.000405)
 33:    414.98   0.000064    0.32  0.000048  (-0.004335 -0.001966 -0.005017)
 34:    430.74   0.000092    0.46  0.000066  ( 0.004000 -0.002085 -0.006789)
 35:    445.01   0.000234    1.18  0.000164  ( 0.010287 -0.001690 -0.007465)
 36:    474.43   0.000145    0.73  0.000096  ( 0.007956  0.000568  0.005648)
 37:    483.39   0.000032    0.16  0.000021  ( 0.004298 -0.001526 -0.000044)
 38:    500.07   0.000047    0.24  0.000029  (-0.004990  0.001792 -0.001061)
 39:    520.15   0.000860    4.34  0.000516  (-0.005007 -0.022135 -0.000855)
 40:    544.55   0.000450    2.28  0.000258  (-0.011728 -0.002671 -0.010646)
 41:    571.67   0.000284    1.44  0.000155  (-0.007718 -0.007856  0.005820)
 42:    580.80   0.001290    6.52  0.000693  (-0.017582  0.003084 -0.019352)
 43:    597.22   0.001569    7.93  0.000820  ( 0.021744  0.009258 -0.016169)
 44:    612.57   0.003690   18.65  0.001880  (-0.019839 -0.037288 -0.009784)
 45:    627.51   0.001068    5.40  0.000531  ( 0.008816  0.002438 -0.021151)
 46:    646.61   0.003405   17.21  0.001643  (-0.000423 -0.039696  0.008202)
 47:    664.44   0.005394   27.26  0.002533  ( 0.012339  0.048641  0.003914)
 48:    684.51   0.002330   11.77  0.001062  ( 0.012694  0.029240 -0.006780)
 49:    693.75   0.001572    7.94  0.000707  ( 0.004947  0.019606 -0.017266)
 50:    746.73   0.009894   50.00  0.004135  ( 0.013764 -0.010604 -0.061912)
 51:    748.81   0.003637   18.38  0.001516  (-0.037847  0.007925 -0.004527)
 52:    775.34   0.002363   11.94  0.000951  ( 0.023199 -0.004721  0.019759)
 53:    784.17   0.000207    1.05  0.000082  (-0.005524  0.003912 -0.006045)
 54:    796.65   0.001906    9.63  0.000747  ( 0.011791 -0.009493  0.022748)
 55:    823.28   0.000711    3.59  0.000270  ( 0.008851 -0.007290  0.011750)
 56:    828.34   0.000936    4.73  0.000353  ( 0.011559 -0.006633 -0.013232)
 57:    835.78   0.000305    1.54  0.000114  ( 0.000652 -0.010590  0.001196)
 58:    848.45   0.000101    0.51  0.000037  (-0.003755 -0.001696  0.004505)
 59:    878.92   0.000007    0.04  0.000003  (-0.001467 -0.000136  0.000663)
 60:    898.49   0.000044    0.22  0.000015  ( 0.000937 -0.003618 -0.001212)
 61:    902.36   0.000267    1.35  0.000092  ( 0.005335 -0.003030 -0.007387)
 62:    914.53   0.000405    2.05  0.000138  ( 0.003003 -0.011324  0.000950)
 63:    917.16   0.000131    0.66  0.000045  ( 0.006194  0.001937  0.001604)
 64:    935.85   0.000195    0.98  0.000065  (-0.006032  0.002964 -0.004450)
 65:    940.82   0.000138    0.70  0.000046  (-0.003094  0.001819 -0.005722)
 66:    943.67   0.000109    0.55  0.000036  ( 0.004228  0.003839  0.001816)
 67:    957.07   0.000708    3.58  0.000231  (-0.004734  0.011178  0.009143)
 68:    977.70   0.000685    3.46  0.000219  (-0.001553 -0.014640 -0.001333)
 69:    990.15   0.000400    2.02  0.000126  ( 0.000950  0.008564 -0.007199)
 70:    999.40   0.001809    9.14  0.000565  ( 0.017560 -0.000378 -0.016014)
 71:   1016.04   0.000115    0.58  0.000035  ( 0.001387 -0.004263 -0.003897)
 72:   1020.16   0.001894    9.57  0.000579  ( 0.019101 -0.002770 -0.014384)
 73:   1021.75   0.002270   11.47  0.000693  (-0.015279  0.017333  0.012622)
 74:   1023.62   0.000537    2.71  0.000164  (-0.004723 -0.011788  0.001554)
 75:   1031.78   0.003627   18.33  0.001097  ( 0.012096  0.030076  0.006800)
 76:   1075.86   0.000900    4.55  0.000261  (-0.011322  0.008309  0.007996)
 77:   1079.02   0.001420    7.18  0.000411  (-0.015581 -0.003405 -0.012504)
 78:   1081.72   0.001757    8.88  0.000507  ( 0.000235  0.008074 -0.021012)
 79:   1084.81   0.009905   50.05  0.002849  (-0.012137  0.051814  0.004157)
 80:   1090.61   0.005810   29.36  0.001663  (-0.010117  0.039325 -0.003710)
 81:   1091.66   0.000512    2.59  0.000146  ( 0.008285  0.000639  0.008789)
 82:   1098.42   0.000160    0.81  0.000045  ( 0.002468 -0.004656  0.004202)
 83:   1118.82   0.000344    1.74  0.000096  ( 0.007174 -0.004246  0.005131)
 84:   1124.41   0.005712   28.86  0.001585  ( 0.033399 -0.016243  0.014349)
 85:   1143.08   0.000854    4.32  0.000233  ( 0.005279 -0.008897 -0.011231)
 86:   1154.29   0.000012    0.06  0.000003  ( 0.000831 -0.000942  0.001342)
 87:   1186.97   0.008257   41.73  0.002171  ( 0.031124 -0.008644  0.033577)
 88:   1192.10   0.000722    3.65  0.000189  (-0.010085  0.005169  0.007781)
 89:   1196.53   0.001670    8.44  0.000435  ( 0.019242 -0.005905 -0.005510)
 90:   1228.02   0.005436   27.47  0.001381  (-0.013979  0.030273  0.016419)
 91:   1239.85   0.001088    5.50  0.000274  (-0.011773 -0.005408  0.010293)
 92:   1250.54   0.000693    3.50  0.000173  ( 0.008526 -0.002617  0.009658)
 93:   1262.16   0.000467    2.36  0.000115  (-0.008448  0.002957  0.005949)
 94:   1269.30   0.001539    7.78  0.000378  ( 0.009964  0.011959 -0.011670)
 95:   1271.89   0.000406    2.05  0.000100  (-0.008550 -0.000897 -0.005059)
 96:   1281.79   0.008301   41.95  0.002021  ( 0.004807  0.041314 -0.017058)
 97:   1298.51   0.000611    3.09  0.000147  ( 0.003613 -0.011547 -0.000617)
 98:   1304.95   0.007985   40.35  0.001909  (-0.027426  0.011260 -0.032102)
 99:   1322.44   0.007870   39.77  0.001857  (-0.007120  0.041488  0.009221)
100:   1330.71   0.007640   38.61  0.001792  ( 0.031692 -0.000519 -0.028052)
101:   1339.07   0.005045   25.50  0.001176  ( 0.022030 -0.019099 -0.018048)
102:   1380.53   0.011113   56.16  0.002512  ( 0.040077 -0.020288  0.022231)
103:   1384.40   0.000036    0.18  0.000008  ( 0.002221 -0.001096  0.001445)
104:   1407.34   0.002103   10.63  0.000466  (-0.007716 -0.019241  0.006046)
105:   1408.38   0.000497    2.51  0.000110  (-0.009024 -0.001591 -0.005112)
106:   1414.75   0.000219    1.10  0.000048  ( 0.005770 -0.001436  0.003587)
107:   1424.78   0.005398   27.28  0.001182  ( 0.002786  0.029669  0.017156)
108:   1435.02   0.002464   12.45  0.000536  ( 0.007561 -0.021868 -0.000746)
109:   1436.99   0.009658   48.81  0.002097  (-0.029210  0.027220 -0.022434)
110:   1443.30   0.001209    6.11  0.000261  (-0.007365 -0.007058 -0.012543)
111:   1472.21   0.005853   29.58  0.001241  (-0.006469 -0.034590  0.001495)
112:   1486.81   0.000179    0.90  0.000037  (-0.000146  0.005576  0.002525)
113:   1488.03   0.008892   44.94  0.001865  ( 0.016323 -0.038747  0.009851)
114:   1489.10   0.004386   22.16  0.000919  ( 0.019432  0.000385 -0.023267)
115:   1493.76   0.000374    1.89  0.000078  ( 0.004506  0.005662  0.005086)
116:   1495.13   0.000674    3.40  0.000141  ( 0.001183 -0.011759 -0.000977)
117:   1498.52   0.001674    8.46  0.000349  ( 0.005091 -0.004297 -0.017443)
118:   1502.52   0.000076    0.39  0.000016  ( 0.001831  0.000644  0.003474)
119:   1507.99   0.000074    0.37  0.000015  (-0.002410  0.002362 -0.001971)
120:   1512.33   0.002063   10.43  0.000426  (-0.001133 -0.020419 -0.002735)
121:   1517.48   0.002208   11.16  0.000454  (-0.016371  0.003808  0.013101)
122:   1519.53   0.000098    0.50  0.000020  (-0.004266 -0.000994 -0.001009)
123:   1522.23   0.010676   53.95  0.002189  ( 0.017556  0.043181  0.003980)
124:   1523.84   0.002551   12.89  0.000522  ( 0.013094 -0.003838  0.018339)
125:   1532.08   0.000376    1.90  0.000077  (-0.006992 -0.004191  0.003173)
126:   1534.98   0.000547    2.76  0.000111  ( 0.008000  0.002124 -0.006535)
127:   1542.49   0.006941   35.07  0.001404  (-0.027450  0.008511  0.024046)
128:   1553.45   0.003963   20.03  0.000796  (-0.006175 -0.026731 -0.006585)
129:   1612.70   0.006242   31.54  0.001208  (-0.029647  0.013807 -0.011755)
130:   1658.10   0.001490    7.53  0.000280  ( 0.007895 -0.013160 -0.006705)
131:   1688.66   0.000884    4.47  0.000163  ( 0.009187  0.004876 -0.007430)
132:   2575.63   0.024874  125.70  0.003014  ( 0.043846  0.009339  0.031686)
133:   3068.25   0.002462   12.44  0.000250  ( 0.010791 -0.003028  0.011172)
134:   3069.82   0.005028   25.41  0.000511  ( 0.007451  0.021226 -0.002241)
135:   3079.81   0.004682   23.66  0.000474  (-0.012268  0.009220  0.015456)
136:   3080.30   0.008415   42.52  0.000852  (-0.025862 -0.011917 -0.006452)
137:   3084.48   0.001882    9.51  0.000190  ( 0.009642 -0.007604  0.006294)
138:   3086.02   0.002251   11.37  0.000228  (-0.003215 -0.011150 -0.009639)
139:   3090.68   0.007086   35.81  0.000715  ( 0.018255 -0.003021  0.019316)
140:   3094.42   0.004316   21.81  0.000435  (-0.004110  0.019511  0.006138)
141:   3122.64   0.008579   43.36  0.000857  ( 0.026025 -0.008665 -0.010245)
142:   3124.19   0.006161   31.13  0.000615  ( 0.005082 -0.003319  0.024053)
143:   3132.17   0.009455   47.78  0.000942  (-0.006131 -0.029935 -0.002875)
144:   3157.17   0.003355   16.95  0.000332  ( 0.006015 -0.007206 -0.015604)
145:   3164.52   0.000854    4.31  0.000084  ( 0.008096 -0.003916 -0.001818)
146:   3166.65   0.002872   14.52  0.000283  (-0.002083 -0.007052 -0.015132)
147:   3170.02   0.008382   42.36  0.000825  (-0.016593  0.009689 -0.021352)
148:   3172.55   0.010088   50.98  0.000992  (-0.025682  0.002648  0.018047)
149:   3186.52   0.000692    3.50  0.000068  (-0.007341 -0.001418 -0.003451)
150:   3186.82   0.005641   28.51  0.000552  ( 0.008995  0.020208 -0.007945)
151:   3186.95   0.001642    8.30  0.000161  ( 0.005153 -0.011009  0.003615)
152:   3194.66   0.002659   13.44  0.000260  (-0.011828  0.003827 -0.010256)
153:   3208.64   0.001326    6.70  0.000129  (-0.001941  0.010541  0.003754)
154:   3210.47   0.006253   31.60  0.000608  (-0.013370  0.012225  0.016721)
155:   3222.33   0.002402   12.14  0.000233  ( 0.000715 -0.014510 -0.004639)
156:   3238.63   0.006079   30.72  0.000586  (-0.017127 -0.004503  0.016496)
157:   3263.73   0.001967    9.94  0.000188  ( 0.000054  0.013566  0.002001)
158:   3279.60   0.000446    2.25  0.000042  (-0.004070  0.004684 -0.001985)
159:   3287.84   0.001415    7.15  0.000134  (-0.004212 -0.010795 -0.000049)
160:   3306.73   0.001526    7.71  0.000144  ( 0.008390 -0.007639  0.003908)
161:   3625.97   0.218690  1105.17  0.018821  ( 0.028816 -0.132093 -0.023290)

--------------------------
THERMOCHEMISTRY AT 298.15K
--------------------------

Temperature         ...   298.15 K
Pressure            ...     1.00 atm
Total Mass          ...   310.29 AMU
Quasi RRHO          ...     True
Cut-Off Frequency   ...     1.00 cm^-1

Throughout the following assumptions are being made:
  (1) The electronic state is orbitally nondegenerate
  (2) There are no thermally accessible electronically excited states
  (3) Hindered rotations indicated by low frequency modes are not
      treated as such but are treated as vibrations and this may
      cause some error
  (4) All equations used are the standard statistical mechanics
      equations for an ideal gas
  (5) All vibrations are strictly harmonic

freq.      31.93  E(vib)   ...       0.55
freq.      46.91  E(vib)   ...       0.53
freq.      51.15  E(vib)   ...       0.52
freq.      68.86  E(vib)   ...       0.50
freq.      91.53  E(vib)   ...       0.47
freq.      93.95  E(vib)   ...       0.47
freq.     129.61  E(vib)   ...       0.43
freq.     161.31  E(vib)   ...       0.39
freq.     167.41  E(vib)   ...       0.39
freq.     190.52  E(vib)   ...       0.36
freq.     197.89  E(vib)   ...       0.35
freq.     215.11  E(vib)   ...       0.34
freq.     237.60  E(vib)   ...       0.32
freq.     240.84  E(vib)   ...       0.31
freq.     264.51  E(vib)   ...       0.29
freq.     283.90  E(vib)   ...       0.28
freq.     296.22  E(vib)   ...       0.27
freq.     306.35  E(vib)   ...       0.26
freq.     313.94  E(vib)   ...       0.25
freq.     317.13  E(vib)   ...       0.25
freq.     328.19  E(vib)   ...       0.24
freq.     350.50  E(vib)   ...       0.23
freq.     361.73  E(vib)   ...       0.22
freq.     372.64  E(vib)   ...       0.21
freq.     399.57  E(vib)   ...       0.19
freq.     414.98  E(vib)   ...       0.19
freq.     430.74  E(vib)   ...       0.18
freq.     445.01  E(vib)   ...       0.17
freq.     474.43  E(vib)   ...       0.15
freq.     483.39  E(vib)   ...       0.15
freq.     500.07  E(vib)   ...       0.14
freq.     520.15  E(vib)   ...       0.13
freq.     544.55  E(vib)   ...       0.12
freq.     571.67  E(vib)   ...       0.11
freq.     580.80  E(vib)   ...       0.11
freq.     597.22  E(vib)   ...       0.10
freq.     612.57  E(vib)   ...       0.10
freq.     627.51  E(vib)   ...       0.09
freq.     646.61  E(vib)   ...       0.09
freq.     664.44  E(vib)   ...       0.08
freq.     684.51  E(vib)   ...       0.07
freq.     693.75  E(vib)   ...       0.07
freq.     746.73  E(vib)   ...       0.06
freq.     748.81  E(vib)   ...       0.06
freq.     775.34  E(vib)   ...       0.05
freq.     784.17  E(vib)   ...       0.05
freq.     796.65  E(vib)   ...       0.05
freq.     823.28  E(vib)   ...       0.05
freq.     828.34  E(vib)   ...       0.04
freq.     835.78  E(vib)   ...       0.04
freq.     848.45  E(vib)   ...       0.04
freq.     878.92  E(vib)   ...       0.04
freq.     898.49  E(vib)   ...       0.03
freq.     902.36  E(vib)   ...       0.03
freq.     914.53  E(vib)   ...       0.03
freq.     917.16  E(vib)   ...       0.03
freq.     935.85  E(vib)   ...       0.03
freq.     940.82  E(vib)   ...       0.03
freq.     943.67  E(vib)   ...       0.03
freq.     957.07  E(vib)   ...       0.03
freq.     977.70  E(vib)   ...       0.03
freq.     990.15  E(vib)   ...       0.02
freq.     999.40  E(vib)   ...       0.02
freq.    1016.04  E(vib)   ...       0.02
freq.    1020.16  E(vib)   ...       0.02
freq.    1021.75  E(vib)   ...       0.02
freq.    1023.62  E(vib)   ...       0.02
freq.    1031.78  E(vib)   ...       0.02
freq.    1075.86  E(vib)   ...       0.02
freq.    1079.02  E(vib)   ...       0.02
freq.    1081.72  E(vib)   ...       0.02
freq.    1084.81  E(vib)   ...       0.02
freq.    1090.61  E(vib)   ...       0.02
freq.    1091.66  E(vib)   ...       0.02
freq.    1098.42  E(vib)   ...       0.02
freq.    1118.82  E(vib)   ...       0.01
freq.    1124.41  E(vib)   ...       0.01
freq.    1143.08  E(vib)   ...       0.01
freq.    1154.29  E(vib)   ...       0.01
freq.    1186.97  E(vib)   ...       0.01
freq.    1192.10  E(vib)   ...       0.01
freq.    1196.53  E(vib)   ...       0.01
freq.    1228.02  E(vib)   ...       0.01
freq.    1239.85  E(vib)   ...       0.01
freq.    1250.54  E(vib)   ...       0.01
freq.    1262.16  E(vib)   ...       0.01
freq.    1269.30  E(vib)   ...       0.01
freq.    1271.89  E(vib)   ...       0.01
freq.    1281.79  E(vib)   ...       0.01
freq.    1298.51  E(vib)   ...       0.01
freq.    1304.95  E(vib)   ...       0.01
freq.    1322.44  E(vib)   ...       0.01
freq.    1330.71  E(vib)   ...       0.01
freq.    1339.07  E(vib)   ...       0.01
freq.    1380.53  E(vib)   ...       0.01
freq.    1384.40  E(vib)   ...       0.00
freq.    1407.34  E(vib)   ...       0.00
freq.    1408.38  E(vib)   ...       0.00
freq.    1414.75  E(vib)   ...       0.00
freq.    1424.78  E(vib)   ...       0.00
freq.    1435.02  E(vib)   ...       0.00
freq.    1436.99  E(vib)   ...       0.00
freq.    1443.30  E(vib)   ...       0.00
freq.    1472.21  E(vib)   ...       0.00
freq.    1486.81  E(vib)   ...       0.00
freq.    1488.03  E(vib)   ...       0.00
freq.    1489.10  E(vib)   ...       0.00
freq.    1493.76  E(vib)   ...       0.00
freq.    1495.13  E(vib)   ...       0.00
freq.    1498.52  E(vib)   ...       0.00
freq.    1502.52  E(vib)   ...       0.00
freq.    1507.99  E(vib)   ...       0.00
freq.    1512.33  E(vib)   ...       0.00
freq.    1517.48  E(vib)   ...       0.00
freq.    1519.53  E(vib)   ...       0.00
freq.    1522.23  E(vib)   ...       0.00
freq.    1523.84  E(vib)   ...       0.00
freq.    1532.08  E(vib)   ...       0.00
freq.    1534.98  E(vib)   ...       0.00
freq.    1542.49  E(vib)   ...       0.00
freq.    1553.45  E(vib)   ...       0.00
freq.    1612.70  E(vib)   ...       0.00
freq.    1658.10  E(vib)   ...       0.00
freq.    1688.66  E(vib)   ...       0.00
freq.    2575.63  E(vib)   ...       0.00
freq.    3068.25  E(vib)   ...       0.00
freq.    3069.82  E(vib)   ...       0.00
freq.    3079.81  E(vib)   ...       0.00
freq.    3080.30  E(vib)   ...       0.00
freq.    3084.48  E(vib)   ...       0.00
freq.    3086.02  E(vib)   ...       0.00
freq.    3090.68  E(vib)   ...       0.00
freq.    3094.42  E(vib)   ...       0.00
freq.    3122.64  E(vib)   ...       0.00
freq.    3124.19  E(vib)   ...       0.00
freq.    3132.17  E(vib)   ...       0.00
freq.    3157.17  E(vib)   ...       0.00
freq.    3164.52  E(vib)   ...       0.00
freq.    3166.65  E(vib)   ...       0.00
freq.    3170.02  E(vib)   ...       0.00
freq.    3172.55  E(vib)   ...       0.00
freq.    3186.52  E(vib)   ...       0.00

Rotational constants in cm-1:     0.012348     0.006549     0.005661

                      ***********************HURRAY********************
                      ***********************HURRAY********************
                             ****ORCA TERMINATED NORMALLY****
TOTAL RUN TIME: 0 days 1 hours 22 minutes 26 seconds 852 msec
