                         Program Version 6.1.0  -  RELEASE   -
|  1> # Automatically generated ORCA input
|  2>
|  3> # Number of cores
|  4> %pal nprocs 12 end
|  5> # RAM per core
|  6> %maxcore 2560
|  7>
|  8> ! wB97X-D3
|  9> ! 6-31+G**
| 10> ! TightSCF
| 11> ! SP
| 12> ! NoSym
| 13>
| 14> %CPCM
| 15> SMD TRUE
| 16> SMDSOLVENT "chloroform"
| 17> end
| 18> %Output
| 19>   JSONPropFile True
| 20> End
| 21>
| 22>
| 23> *xyz 0 1
| 24> C         0.40718200     -2.02769800      1.00285600
| 25> C         1.38339400     -1.05160600      1.18542600
| 26> C         1.00908100      0.21419400      1.61871300
| 27> C        -0.32860600      0.49262200      1.88435600
| 28> C        -1.30565700     -0.48940900      1.70702600
| 29> C        -0.94412600     -1.76877200      1.24310500
| 30> H         0.70570400     -3.01039300      0.64264400
| 31> H         2.42567700     -1.27580700      0.97823900
| 32> H         1.75797200      0.98844800      1.76074500
| 33> H        -0.60923700      1.48141800      2.23449200
| 34> N        -2.68865400     -0.24059700      1.96672700
| 35> B        -2.05642500     -2.85760800      0.96648200
| 36> H        -2.38989500     -3.66138000      1.79326100
| 37> H        -3.13008900     -2.24363100      0.52502800
| 38> H        -1.79102600     -3.52666400     -0.12579500
| 39> C        -3.13547300      1.12811200      1.79165200
| 40> H        -4.22953200      1.14239600      1.76086700
| 41> H        -2.81867900      1.80764800      2.60234800
| 42> H        -2.76191500      1.52062600      0.84298500
| 43> C        -3.15640600     -0.80153000      3.22781200
| 44> H        -2.75858100     -0.25866800      4.10235100
| 45> H        -4.24989500     -0.75807800      3.26297200
| 46> H        -2.85493800     -1.84778800      3.31437900
| 47> B        -2.89005900     -2.91252900     -0.59514900
| 48> H        -2.51767500     -2.13032400     -1.41697600
| 49> C        -4.06912300     -3.91379700     -0.88935000
| 50> C        -4.31245900     -4.38551400     -2.20053200
| 51> C        -4.97542400     -4.27015000      0.11613400
| 52> C        -5.45396800     -5.15238800     -2.46020500
| 53> C        -6.10656100     -5.03758000     -0.14222100
| 54> H        -4.80603000     -3.90908500      1.12823600
| 55> C        -6.34592200     -5.46880100     -1.44076100
| 56> H        -5.64634300     -5.51851500     -3.46342100
| 57> H        -6.79877500     -5.28254700      0.65764900
| 58> H        -7.22561600     -6.06536000     -1.66694400
| 59> N        -3.40270700     -4.04777500     -3.23349000
| 60> C        -3.90370300     -4.07948800     -4.59140700
| 61> H        -3.20399000     -3.53916000     -5.23685400
| 62> H        -4.01431100     -5.09899200     -5.00227900
| 63> H        -4.87103600     -3.57461700     -4.64524000
| 64> C        -2.08025000     -4.64402800     -3.13747300
| 65> H        -2.07027900     -5.69317600     -3.48087500
| 66> H        -1.37331300     -4.07342900     -3.74856300
| 67> H        -1.72064500     -4.63061600     -2.10770800
| 68> *
| 69>
| 70>
| 71>                          ****END OF INPUT****

CARTESIAN COORDINATES (ANGSTROEM)
---------------------------------
  C      0.407182   -2.027698    1.002856
  C      1.383394   -1.051606    1.185426
  C      1.009081    0.214194    1.618713
  C     -0.328606    0.492622    1.884356
  C     -1.305657   -0.489409    1.707026
  C     -0.944126   -1.768772    1.243105
  H      0.705704   -3.010393    0.642644
  H      2.425677   -1.275807    0.978239
  H      1.757972    0.988448    1.760745
  H     -0.609237    1.481418    2.234492
  N     -2.688654   -0.240597    1.966727
  B     -2.056425   -2.857608    0.966482
  H     -2.389895   -3.661380    1.793261
  H     -3.130089   -2.243631    0.525028
  H     -1.791026   -3.526664   -0.125795
  C     -3.135473    1.128112    1.791652
  H     -4.229532    1.142396    1.760867
  H     -2.818679    1.807648    2.602348
  H     -2.761915    1.520626    0.842985
  C     -3.156406   -0.801530    3.227812
  H     -2.758581   -0.258668    4.102351
  H     -4.249895   -0.758078    3.262972
  H     -2.854938   -1.847788    3.314379
  B     -2.890059   -2.912529   -0.595149
  H     -2.517675   -2.130324   -1.416976
  C     -4.069123   -3.913797   -0.889350
  C     -4.312459   -4.385514   -2.200532
  C     -4.975424   -4.270150    0.116134
  C     -5.453968   -5.152388   -2.460205
  C     -6.106561   -5.037580   -0.142221
  H     -4.806030   -3.909085    1.128236
  C     -6.345922   -5.468801   -1.440761
  H     -5.646343   -5.518515   -3.463421
  H     -6.798775   -5.282547    0.657649
  H     -7.225616   -6.065360   -1.666944
  N     -3.402707   -4.047775   -3.233490
  C     -3.903703   -4.079488   -4.591407
  H     -3.203990   -3.539160   -5.236854
  H     -4.014311   -5.098992   -5.002279
  H     -4.871036   -3.574617   -4.645240
  C     -2.080250   -4.644028   -3.137473
  H     -2.070279   -5.693176   -3.480875
  H     -1.373313   -4.073429   -3.748563
  H     -1.720645   -4.630616   -2.107708

 Total Charge           Charge          ....    0
 Multiplicity           Mult            ....    1
 Number of Electrons    NEL             ....  144
 Basis Dimension        Dim             ....  480

ORBITAL ENERGIES
----------------

  NO   OCC          E(Eh)            E(eV)
   0   2.0000     -14.441439      -392.9715
   1   2.0000     -14.439798      -392.9269
   2   2.0000     -10.326967      -281.0110
   3   2.0000     -10.322515      -280.8899
   4   2.0000     -10.303195      -280.3642
   5   2.0000     -10.301329      -280.3134
   6   2.0000     -10.300016      -280.2777
   7   2.0000     -10.299238      -280.2565
   8   2.0000     -10.292436      -280.0714
   9   2.0000     -10.291235      -280.0387
  10   2.0000     -10.290225      -280.0113
  11   2.0000     -10.289875      -280.0017
  12   2.0000     -10.286580      -279.9121
  13   2.0000     -10.285738      -279.8891
  14   2.0000     -10.285252      -279.8759
  15   2.0000     -10.284085      -279.8442
  16   2.0000     -10.276719      -279.6437
  17   2.0000     -10.275950      -279.6228
  18   2.0000      -6.857679      -186.6069
  19   2.0000      -6.854403      -186.5178
  20   2.0000      -1.056406       -28.7463
  21   2.0000      -1.053842       -28.6765
  22   2.0000      -0.964238       -26.2383
  23   2.0000      -0.963778       -26.2257
  24   2.0000      -0.868062       -23.6212
  25   2.0000      -0.862080       -23.4584
  26   2.0000      -0.858288       -23.3552
  27   2.0000      -0.856798       -23.3147
  28   2.0000      -0.820388       -22.3239
  29   2.0000      -0.818861       -22.2823
  30   2.0000      -0.775124       -21.0922
  31   2.0000      -0.757011       -20.5993
  32   2.0000      -0.751185       -20.4408
  33   2.0000      -0.712016       -19.3749
  34   2.0000      -0.700050       -19.0493
  35   2.0000      -0.680067       -18.5056
  36   2.0000      -0.673622       -18.3302
  37   2.0000      -0.624831       -17.0025
  38   2.0000      -0.615007       -16.7352
  39   2.0000      -0.578300       -15.7364
  40   2.0000      -0.574404       -15.6303
  41   2.0000      -0.571365       -15.5476
  42   2.0000      -0.565792       -15.3960
  43   2.0000      -0.559504       -15.2249
  44   2.0000      -0.556090       -15.1320
  45   2.0000      -0.546910       -14.8822
  46   2.0000      -0.532428       -14.4881
  47   2.0000      -0.529203       -14.4003
  48   2.0000      -0.519916       -14.1476
  49   2.0000      -0.516437       -14.0530
  50   2.0000      -0.504672       -13.7328
  51   2.0000      -0.499606       -13.5950
  52   2.0000      -0.491028       -13.3616
  53   2.0000      -0.486281       -13.2324
  54   2.0000      -0.481233       -13.0950
  55   2.0000      -0.473467       -12.8837
  56   2.0000      -0.472388       -12.8543
  57   2.0000      -0.465507       -12.6671
  58   2.0000      -0.461205       -12.5500
  59   2.0000      -0.458603       -12.4792
  60   2.0000      -0.455664       -12.3992
  61   2.0000      -0.443469       -12.0674
  62   2.0000      -0.432274       -11.7628
  63   2.0000      -0.426705       -11.6112
  64   2.0000      -0.422209       -11.4889
  65   2.0000      -0.400083       -10.8868
  66   2.0000      -0.357981        -9.7412
  67   2.0000      -0.351309        -9.5596
  68   2.0000      -0.336236        -9.1494
  69   2.0000      -0.333328        -9.0703
  70   2.0000      -0.293249        -7.9797
  71   2.0000      -0.286656        -7.8003
  72   0.0000       0.034212         0.9310
  73   0.0000       0.059095         1.6081
  74   0.0000       0.061109         1.6628
  75   0.0000       0.067633         1.8404
  76   0.0000       0.070847         1.9279

MULLIKEN ATOMIC CHARGES
-----------------------
   0 C :   -0.344788
   1 C :    0.030249
   2 C :   -0.298627
   3 C :    0.122388
   4 C :   -0.630325
   5 C :   -0.028153
   6 H :    0.167291
   7 H :    0.177390
   8 H :    0.180770
   9 H :    0.171858
  10 N :   -0.153078
  11 B :    0.263219
  12 H :    0.010044
  13 H :    0.032220
  14 H :    0.029582
  15 C :   -0.293992
  16 H :    0.167857
  17 H :    0.150606
  18 H :    0.172313
  19 C :   -0.219543
  20 H :    0.154380
  21 H :    0.164248
  22 H :    0.163301
  23 B :   -0.160065
  24 H :    0.022972
  25 C :   -0.252479
  26 C :   -0.561603
  27 C :    0.367854
  28 C :   -0.076363
  29 C :   -0.347637
  30 H :    0.167129
  31 C :   -0.150153
  32 H :    0.172682
  33 H :    0.178004
  34 H :    0.181162
  35 N :   -0.141681
  36 C :   -0.293879
  37 H :    0.166909
  38 H :    0.153377
  39 H :    0.171000
  40 C :   -0.264339
  41 H :    0.153343
  42 H :    0.168657
  43 H :    0.155899
Sum of atomic charges:   -0.0000000

LOEWDIN ATOMIC CHARGES
----------------------
   0 C :   -0.147208
   1 C :   -0.165214
   2 C :   -0.144630
   3 C :   -0.163608
   4 C :   -0.073988
   5 C :   -0.181851
   6 H :    0.165563
   7 H :    0.161717
   8 H :    0.162453
   9 H :    0.175284
  10 N :   -0.435635
  11 B :   -0.196844
  12 H :    0.106512
  13 H :    0.240092
  14 H :    0.223335
  15 C :   -0.219572
  16 H :    0.148265
  17 H :    0.141811
  18 H :    0.157720
  19 C :   -0.212919
  20 H :    0.146200
  21 H :    0.149142
  22 H :    0.158856
  23 B :   -0.162537
  24 H :    0.120974
  25 C :   -0.192598
  26 C :   -0.052746
  27 C :   -0.142156
  28 C :   -0.172720
  29 C :   -0.173891
  30 H :    0.166218
  31 C :   -0.133690
  32 H :    0.174301
  33 H :    0.161827
  34 H :    0.162931
  35 N :   -0.421528
  36 C :   -0.219206
  37 H :    0.148405
  38 H :    0.142303
  39 H :    0.156385
  40 C :   -0.208678
  41 H :    0.145656
  42 H :    0.148910
  43 H :    0.156361

  Mayer bond orders larger than 0.100000
B(  0-C ,  1-C ) :   1.5440 B(  0-C ,  4-C ) :   0.2511 B(  0-C ,  5-C ) :   1.3379
B(  0-C ,  6-H ) :   0.7949 B(  0-C , 11-B ) :   0.2140 B(  1-C ,  2-C ) :   1.6388
B(  1-C ,  3-C ) :  -0.2230 B(  1-C ,  7-H ) :   0.8482 B(  2-C ,  3-C ) :   1.7105
B(  2-C ,  5-C ) :   0.2477 B(  2-C ,  8-H ) :   0.8192 B(  3-C ,  4-C ) :   1.3982
B(  3-C ,  5-C ) :   0.2461 B(  3-C ,  9-H ) :   0.6351 B(  4-C ,  5-C ) :   0.9851
B(  4-C ,  9-H ) :   0.1910 B(  4-C , 10-N ) :   1.3584 B(  4-C , 13-H ) :   0.1977
B(  4-C , 19-C ) :  -0.2152 B(  5-C , 10-N ) :  -0.3507 B(  5-C , 11-B ) :   0.8867
B(  5-C , 13-H ) :  -0.2113 B( 10-N , 15-C ) :   0.8155 B( 10-N , 19-C ) :   0.8220
B( 11-B , 12-H ) :   0.8795 B( 11-B , 13-H ) :   0.4796 B( 11-B , 14-H ) :   0.4764
B( 11-B , 23-B ) :   0.6393 B( 11-B , 25-C ) :  -0.1683 B( 13-H , 23-B ) :   0.4892
B( 13-H , 25-C ) :  -0.1568 B( 13-H , 27-C ) :   0.1259 B( 14-H , 23-B ) :   0.4894
B( 15-C , 16-H ) :   0.9682 B( 15-C , 17-H ) :   0.9565 B( 15-C , 18-H ) :   0.9837
B( 19-C , 20-H ) :   0.9749 B( 19-C , 21-H ) :   0.9666 B( 19-C , 22-H ) :   0.9586
B( 23-B , 24-H ) :   0.9347 B( 23-B , 25-C ) :   1.3343 B( 23-B , 26-C ) :  -0.2628
B( 23-B , 29-C ) :   0.1467 B( 23-B , 30-H ) :   0.1118 B( 24-H , 25-C ) :   0.1730
B( 24-H , 26-C ) :  -0.2267 B( 25-C , 26-C ) :   1.2195 B( 25-C , 27-C ) :   1.0254
B( 25-C , 28-C ) :   0.1977 B( 25-C , 29-C ) :   0.1273 B( 25-C , 31-C ) :   0.2267
B( 25-C , 32-H ) :   0.1302 B( 25-C , 35-N ) :  -0.5295 B( 26-C , 28-C ) :   1.6493
B( 26-C , 32-H ) :   0.1520 B( 26-C , 35-N ) :   1.5243 B( 27-C , 28-C ) :   0.1195
B( 27-C , 29-C ) :   1.4436 B( 27-C , 30-H ) :   0.7026 B( 27-C , 31-C ) :  -0.2068
B( 28-C , 29-C ) :  -0.1703 B( 28-C , 31-C ) :   1.6872 B( 28-C , 32-H ) :   0.6627
B( 28-C , 35-N ) :   0.1329 B( 29-C , 31-C ) :   1.6751 B( 29-C , 33-H ) :   0.9010
B( 31-C , 34-H ) :   0.8049 B( 35-N , 36-C ) :   0.7782 B( 35-N , 40-C ) :   0.8253
B( 36-C , 37-H ) :   0.9708 B( 36-C , 38-H ) :   0.9481 B( 36-C , 39-H ) :   0.9835
B( 40-C , 41-H ) :   0.9755 B( 40-C , 42-H ) :   0.9626 B( 40-C , 43-H ) :   0.9686

Dispersion correction           -0.019836355
FINAL SINGLE POINT ENERGY      -783.190805281748

DIPOLE MOMENT
-------------

Method             : SCF
Type of density    : Electron Density
Multiplicity       :   1
Irrep              :   0
Energy             :  -783.1709689268539023 Eh
Basis              : AO
                                X                 Y                 Z
Electronic contribution:      1.625628595      -2.367727117       2.548935676
Nuclear contribution   :     -1.704878514       2.371196910      -2.713915333
                        -----------------------------------------
Total Dipole Moment    :     -0.079249919       0.003469794      -0.164979658
                        -----------------------------------------
Magnitude (a.u.)       :      0.183059763
Magnitude (Debye)      :      0.465300939

Rotational constants in cm-1:             0.018409             0.005598             0.004793
Rotational constants in MHz :           551.890963           167.833675           143.677193

                             ****ORCA TERMINATED NORMALLY****
TOTAL RUN TIME: 0 days 0 hours 2 minutes 56 seconds 922 msec
