   * xtb version 6.7.1 (edcfbbe) compiled by 'conda@3ef47c1a292c' on 2024-11-25

   ID    Z sym.   atoms
    1    6 C      1-6, 13-15, 17, 24-26, 30, 34, 38, 43, 44, 46-49, 52, 57, 58
    2    1 H      7-10, 12, 16, 18-20, 27-29, 31-33, 35-37, 39-41, 50, 51,
                  53-56, 59-70
    3    5 B      11, 21
    4    8 O      22, 23
    5    7 N      42
    6   16 S      45
> constrain
-> force constant=6
-> distance: 12, 11, 1.376
--> 1: 12
--> 2: 11
--> 3: 1.376
constraining bond 12 11 to    1.3760000 Å, actual value:    1.3758875 Å
-> distance: 12, 21, 1.264
--> 1: 12
--> 2: 21
--> 3: 1.264
constraining bond 12 21 to    1.2640000 Å, actual value:    1.2641472 Å
-> distance: 12, 13, 2.477
--> 1: 12
--> 2: 13
--> 3: 2.477
constraining bond 12 13 to    2.4770000 Å, actual value:    2.4768763 Å
-> distance: 13, 11, 1.616
--> 1: 13
--> 2: 11
--> 3: 1.616
constraining bond 13 11 to    1.6160000 Å, actual value:    1.6158833 Å

          program call               : xtb --chrg 0 --uhf 0 --norestart --verbose --parallel 1 --gfn 2 --opt --input details.inp -- mol.xyz
          :  Hamiltonian                  GFN2-xTB          :
 * total energy  :   -90.2532114 Eh     change       -0.1175934E-08 Eh
 * total energy  :   -90.2686684 Eh     change       -0.1545700E-01 Eh
 * total energy  :   -90.2627085 Eh     change        0.5959984E-02 Eh
 * total energy  :   -90.2716247 Eh     change       -0.8916218E-02 Eh
 * total energy  :   -90.2131509 Eh     change        0.5847375E-01 Eh
 * total energy  :   -90.2721964 Eh     change       -0.5904547E-01 Eh
 * total energy  :   -90.2086601 Eh     change        0.6353627E-01 Eh
 * total energy  :   -90.2745477 Eh     change       -0.6588755E-01 Eh
 * total energy  :   -90.2719794 Eh     change        0.2568309E-02 Eh
 * total energy  :   -90.2756433 Eh     change       -0.3663958E-02 Eh
 * total energy  :   -90.2808326 Eh     change        0.4497667E-04 Eh
 * total energy  :   -90.2808832 Eh     change       -0.5054999E-04 Eh
 * total energy  :   -90.2808425 Eh     change        0.4066031E-04 Eh
 * total energy  :   -90.2808866 Eh     change       -0.4406289E-04 Eh
 * total energy  :   -90.2807907 Eh     change        0.9594602E-04 Eh
 * total energy  :   -90.2808767 Eh     change       -0.8607387E-04 Eh
 * total energy  :   -90.2808884 Eh     change       -0.1169556E-04 Eh
 * total energy  :   -90.2808893 Eh     change       -0.9128294E-06 Eh
 * total energy  :   -90.2808929 Eh     change       -0.3581389E-05 Eh
   *** GEOMETRY OPTIMIZATION CONVERGED AFTER 58 ITERATIONS ***

 final structure:
================
70
 xtb: 6.7.1 (edcfbbe)
C           -1.98659216750128       -1.98396429821070        1.10959849798607
C           -0.67143344461179       -1.57007530746198        1.00900023245362
C           -0.31902852829326       -0.26684372613213        0.65581469848691
C           -1.36384643188109        0.63368932918471        0.38460231210199
C           -2.68730763645957        0.21038059662300        0.49074988383207
C           -3.00478723030300       -1.08488016765744        0.85326337462156
H           -2.21605768247949       -3.00385507952087        1.38534787166634
H            0.11475289231562       -2.28581420767666        1.19904314394898
H           -3.48770987295497        0.90481230710834        0.28536119221117
H           -4.03953377309294       -1.38929092919264        0.92991642079276
B            1.23071096421052        0.13680475699940        0.58690309145060
H            1.75291906524514       -0.86023817116605       -0.20511609125439
C            1.95295765857116        0.18560303041927        2.03142282647917
C            1.62368970945115       -0.41193666823047        3.22222714223758
C            2.35609515079520        0.05378531723513        4.33208805088207
H            0.86905689984006       -1.17514539677289        3.29066731947669
C            3.24126887858795        1.03086126970039        3.99505828974592
H            2.22714288654515       -0.31598256541114        5.33471911121276
H            3.91830618033087        1.56320680566985        4.63388950397742
H            1.53826013746628        1.07632624633085       -0.05519947997968
B            2.58707222033915       -1.34282344452322        0.61207813498888
O            3.91897626250707       -1.11577063587596        0.43105963091462
O            2.33374473643294       -2.56009549564620        1.17528896873038
C            4.66709170362007       -2.13840994610237        1.10091329084651
C            3.57030792710037       -3.20434116391812        1.50102091990553
C            5.73186866998565       -2.65153362798234        0.12976356493190
H            6.41186682231967       -1.83522799569909       -0.09976414486056
H            6.29635321149310       -3.46401996848854        0.57741880045333
H            5.28687132755619       -2.98728408296091       -0.80136261397247
C            5.37521931282234       -1.49689529673327        2.29823367488525
H            5.99338757942172       -0.68043749994960        1.93260206717089
H            4.66375875706453       -1.08448211586441        3.00634524312240
H            6.00836805917857       -2.22058624809894        2.80261844216987
C            3.54482422428483       -3.56739869083143        2.98655526851311
H            2.74578244223033       -4.28553701801377        3.15421998790041
H            4.48741687097495       -4.01433937539687        3.28772687957075
H            3.34234358705148       -2.69433465812221        3.59895993288212
C            3.62642928570330       -4.49558027529645        0.67772488453030
H            4.53969094669600       -5.04660879556904        0.87879544519590
H            2.77460223417011       -5.11417232808692        0.94998796043804
H            3.55484161696717       -4.27981719656768       -0.38440744230792
N           -1.05828020055372        1.96924150759605       -0.00693111370138
C           -1.20196288921423        2.28658233620814       -1.42462816577047
C           -1.18950336472491        3.00394120937476        1.01385397832706
S            3.18832224947935        1.38722500735752        2.31649674848964
C           -0.29451520232709        4.19275460791965        0.62510123246718
C           -0.66419753060964        2.45162839688985        2.34647861253532
C           -2.62751594836730        3.49694719135819        1.28751543257478
C           -0.53852933495336        4.66188780046602       -0.80115223352425
H            0.74631622578082        3.87507883318781        0.71233531662422
H           -0.46075930235287        5.01088424379509        1.32824632733802
C           -0.30374719269034        3.49369266910498       -1.74673149362109
H            0.14732300130215        5.47731135977409       -1.04419876186525
H           -1.55295527157165        5.04683281699972       -0.91115495186709
H            0.73708249516105        3.17857079518165       -1.65191596700876
H           -0.47333149747029        3.80128508757418       -2.78031935436037
C           -2.64152571986522        2.56448977704710       -1.91138911852740
C           -0.69411077426800        1.09794261572077       -2.25698187014290
H           -0.68672517183081        1.37140004308404       -3.30984758391465
H           -1.33771432326853        0.23126294843632       -2.12999138401420
H            0.31307283336272        0.82544499723227       -1.96205252680758
H           -2.62956109865248        2.71818974790373       -2.98871486827713
H           -3.07234573282457        3.44799047761532       -1.45491139839226
H           -3.28458957625350        1.71460007040794       -1.70290135684215
H            0.33794277266866        2.05979890054781        2.22148065838619
H           -1.30148914740625        1.65339165987139        2.71808696789812
H           -0.63900669516525        3.24787361892192        3.08704430072716
H           -3.05427284724147        4.02911567778007        0.44492727891220
H           -2.61467266360689        4.17631419994757        2.13753721641766
H           -3.27422016908901        2.66121521811642        1.53792381383190

          :  Hamiltonian                  GFN2-xTB          :
         :: total energy             -90.280892917099 Eh    ::
         :: gradient norm              0.000596157575 Eh/a0 ::
         :: HOMO-LUMO gap              1.644291345482 eV    ::
         :: SCC energy               -91.541860021617 Eh    ::
         :: -> dispersion             -0.090135564458 Eh    ::
         :: repulsion energy           1.260954588851 Eh    ::

    * Orbital Energies and Occupations

         #    Occupation            Energy/Eh            Energy/eV
      -------------------------------------------------------------
         1        2.0000           -0.7163142             -19.4919
       ...           ...                  ...                  ...
        72        2.0000           -0.4163424             -11.3293
        73        2.0000           -0.4155290             -11.3071
        74        2.0000           -0.4136435             -11.2558
        75        2.0000           -0.4107573             -11.1773
        76        2.0000           -0.4050133             -11.0210
        77        2.0000           -0.4033978             -10.9770
        78        2.0000           -0.3870154             -10.5312
        79        2.0000           -0.3855883             -10.4924
        80        2.0000           -0.3828107             -10.4168
        81        2.0000           -0.3769148             -10.2564
        82        2.0000           -0.3732748             -10.1573
        83        2.0000           -0.3692360             -10.0474
        84        2.0000           -0.3111876              -8.4678 (HOMO)
        85                         -0.2507611              -6.8236 (LUMO)
        86                         -0.2049866              -5.5780
        87                         -0.1992828              -5.4228
        88                         -0.1854626              -5.0467
        89                         -0.1739178              -4.7325
        90                         -0.1267771              -3.4498
        91                         -0.1045329              -2.8445
        92                         -0.0812396              -2.2106
        93                         -0.0595674              -1.6209
        94                          0.0080146               0.2181
        95                          0.0105351               0.2867
       ...                                ...                  ...
       168                          0.6996343              19.0380
      -------------------------------------------------------------
                  HL-Gap            0.0604266 Eh            1.6443 eV

     #   Z          covCN         q      C6AA      α(0)
     1   6 C        2.917    -0.039    28.961     8.825
     2   6 C        2.925    -0.049    29.224     8.865
     3   6 C        2.882    -0.077    29.933     8.969
     4   6 C        2.915     0.070    26.423     8.429
     5   6 C        2.922    -0.049    29.224     8.865
     6   6 C        2.918    -0.039    28.969     8.826
     7   1 H        0.926     0.017     2.776     2.606
     8   1 H        0.926     0.031     2.565     2.505
     9   1 H        0.926     0.029     2.594     2.518
    10   1 H        0.925     0.018     2.766     2.601
    11   5 B        4.003     0.177    19.733     7.158
    12   1 H        1.561     0.048     2.335     2.386
    13   6 C        3.079    -0.058    29.362     8.884
    14   6 C        3.132    -0.048    28.963     8.810
    15   6 C        3.106    -0.051    29.118     8.841
    16   1 H        0.926     0.037     2.488     2.467
    17   6 C        2.940    -0.030    28.743     8.793
    18   1 H        0.926     0.027     2.624     2.533
    19   1 H        0.926     0.039     2.457     2.451
    20   1 H        0.936    -0.090     5.217     3.571
    21   5 B        3.390     0.447    15.089     6.475
    22   8 O        1.637    -0.367    20.225     6.071
    23   8 O        1.637    -0.370    20.289     6.080
    24   6 C        3.851     0.130    18.449     6.109
    25   6 C        3.847     0.129    18.458     6.111
    26   6 C        3.756    -0.120    22.850     6.816
    27   1 H        0.925     0.060     2.200     2.320
    28   1 H        0.925     0.045     2.377     2.411
    29   1 H        0.925     0.051     2.307     2.375
    30   6 C        3.756    -0.119    22.827     6.812
    31   1 H        0.925     0.059     2.216     2.328
    32   1 H        0.925     0.049     2.333     2.389
    33   1 H        0.925     0.044     2.391     2.418
    34   6 C        3.755    -0.118    22.818     6.811
    35   1 H        0.925     0.057     2.237     2.339
    36   1 H        0.925     0.044     2.392     2.419
    37   1 H        0.925     0.053     2.281     2.362
    38   6 C        3.755    -0.119    22.827     6.812
    39   1 H        0.925     0.047     2.361     2.403
    40   1 H        0.925     0.057     2.229     2.335
    41   1 H        0.925     0.046     2.365     2.405
    42   7 N        2.743    -0.183    24.969     7.421
    43   6 C        3.839     0.083    19.175     6.229
    44   6 C        3.839     0.083    19.181     6.230
    45  16 S        2.335    -0.013   141.612    20.029
    46   6 C        3.816    -0.069    21.807     6.646
    47   6 C        3.765    -0.115    22.751     6.798
    48   6 C        3.758    -0.112    22.688     6.791
    49   6 C        3.803    -0.051    21.487     6.599
    50   1 H        0.924     0.041     2.435     2.440
    51   1 H        0.924     0.029     2.596     2.520
    52   6 C        3.816    -0.068    21.789     6.644
    53   1 H        0.924     0.025     2.652     2.547
    54   1 H        0.924     0.030     2.588     2.516
    55   1 H        0.924     0.039     2.457     2.451
    56   1 H        0.924     0.029     2.604     2.524
    57   6 C        3.758    -0.112    22.700     6.793
    58   6 C        3.764    -0.116    22.759     6.800
    59   1 H        0.925     0.034     2.526     2.485
    60   1 H        0.925     0.034     2.523     2.484
    61   1 H        0.925     0.041     2.430     2.438
    62   1 H        0.925     0.027     2.627     2.535
    63   1 H        0.925     0.033     2.543     2.494
    64   1 H        0.925     0.034     2.532     2.489
    65   1 H        0.925     0.045     2.381     2.413
    66   1 H        0.925     0.033     2.538     2.492
    67   1 H        0.925     0.033     2.541     2.493
    68   1 H        0.925     0.032     2.558     2.501
    69   1 H        0.925     0.027     2.624     2.533
    70   1 H        0.925     0.034     2.530     2.488

Wiberg/Mayer (AO) data.
largest (>0.10) Wiberg bond orders for each atom

     #   Z sym  total        # sym  WBO       # sym  WBO       # sym  WBO
 ---------------------------------------------------------------------------
     1   6 C    3.991 --     2 C    1.447     6 C    1.431     7 H    0.971
                             4 C    0.106
     2   6 C    3.990 --     1 C    1.447     3 C    1.415     8 H    0.964
                             5 C    0.106
     3   6 C    3.965 --     2 C    1.415     4 C    1.374    11 B    0.964
                             6 C    0.110
     4   6 C    3.977 --     5 C    1.404     3 C    1.374    42 N    1.007
                             1 C    0.106
     5   6 C    3.990 --     6 C    1.442     4 C    1.404     9 H    0.961
                             2 C    0.106
     6   6 C    3.989 --     5 C    1.442     1 C    1.431    10 H    0.971
                             3 C    0.110
     7   1 H    0.999 --     1 C    0.971
     8   1 H    0.999 --     2 C    0.964
     9   1 H    0.999 --     5 C    0.961
    10   1 H    0.999 --     6 C    0.971
    11   5 B    3.484 --     3 C    0.964    20 H    0.951    13 C    0.861
                            12 H    0.322    21 B    0.264
    12   1 H    0.997 --    21 B    0.616    11 B    0.322
    13   6 C    3.919 --    14 C    1.541    45 S    1.143    11 B    0.861
                            21 B    0.175    17 C    0.108
    14   6 C    3.989 --    13 C    1.541    15 C    1.297    16 H    0.962
    15   6 C    3.987 --    17 C    1.593    14 C    1.297    18 H    0.966
    16   1 H    0.999 --    14 C    0.962
    17   6 C    3.953 --    15 C    1.593    45 S    1.215    19 H    0.971
                            13 C    0.108
    18   1 H    0.999 --    15 C    0.966
    19   1 H    0.998 --    17 C    0.971
    20   1 H    0.991 --    11 B    0.951
    21   5 B    3.424 --    22 O    1.127    23 O    1.118    12 H    0.616
                            11 B    0.264    13 C    0.175
    22   8 O    2.238 --    21 B    1.127    24 C    0.940
    23   8 O    2.234 --    21 B    1.118    25 C    0.939
    24   6 C    3.933 --    26 C    0.996    30 C    0.993    22 O    0.940
                            25 C    0.933
    25   6 C    3.935 --    34 C    0.996    38 C    0.994    23 O    0.939
                            24 C    0.933
    26   6 C    3.992 --    24 C    0.996    28 H    0.983    29 H    0.982
                            27 H    0.982
    27   1 H    0.996 --    26 C    0.982
    28   1 H    0.997 --    26 C    0.983
    29   1 H    0.997 --    26 C    0.982
    30   6 C    3.993 --    24 C    0.993    33 H    0.983    31 H    0.982
                            32 H    0.978
    31   1 H    0.996 --    30 C    0.982
    32   1 H    0.998 --    30 C    0.978
    33   1 H    0.997 --    30 C    0.983
    34   6 C    3.993 --    25 C    0.996    36 H    0.983    35 H    0.982
                            37 H    0.979
    35   1 H    0.997 --    34 C    0.982
    36   1 H    0.997 --    34 C    0.983
    37   1 H    0.997 --    34 C    0.979
    38   6 C    3.994 --    25 C    0.994    39 H    0.983    41 H    0.983
                            40 H    0.982
    39   1 H    0.997 --    38 C    0.983
    40   1 H    0.996 --    38 C    0.982
    41   1 H    0.998 --    38 C    0.983
    42   7 N    3.164 --     4 C    1.007    43 C    0.979    44 C    0.978
    43   6 C    3.980 --    58 C    0.992    57 C    0.979    52 C    0.979
                            42 N    0.979
    44   6 C    3.980 --    47 C    0.992    46 C    0.979    48 C    0.979
                            42 N    0.978
    45  16 S    2.635 --    17 C    1.215    13 C    1.143
    46   6 C    3.996 --    49 C    1.009    44 C    0.979    51 H    0.976
                            50 H    0.975
    47   6 C    3.995 --    44 C    0.992    67 H    0.985    66 H    0.984
                            65 H    0.976
    48   6 C    3.996 --    69 H    0.985    70 H    0.981    44 C    0.979
                            68 H    0.976
    49   6 C    3.999 --    46 C    1.009    52 C    1.009    53 H    0.976
                            54 H    0.973
    50   1 H    0.998 --    46 C    0.975
    51   1 H    0.998 --    46 C    0.976
    52   6 C    3.996 --    49 C    1.009    43 C    0.979    56 H    0.976
                            55 H    0.975
    53   1 H    0.999 --    49 C    0.976
    54   1 H    0.999 --    49 C    0.973
    55   1 H    0.998 --    52 C    0.975
    56   1 H    0.998 --    52 C    0.976
    57   6 C    3.996 --    62 H    0.985    64 H    0.981    43 C    0.979
                            63 H    0.976
    58   6 C    3.995 --    43 C    0.992    59 H    0.985    60 H    0.984
                            61 H    0.981
    59   1 H    0.998 --    58 C    0.985
    60   1 H    0.999 --    58 C    0.984
    61   1 H    0.998 --    58 C    0.981
    62   1 H    0.999 --    57 C    0.985
    63   1 H    0.999 --    57 C    0.976
    64   1 H    0.999 --    57 C    0.981
    65   1 H    0.998 --    47 C    0.976
    66   1 H    0.999 --    47 C    0.984
    67   1 H    0.998 --    47 C    0.985
    68   1 H    0.999 --    48 C    0.976
    69   1 H    0.999 --    48 C    0.985
    70   1 H    0.999 --    48 C    0.981
 ---------------------------------------------------------------------------

molecular dipole:
                 x           y           z       tot (Debye)
 q only:        1.457      -0.806       0.095
   full:        1.147      -1.270       0.355       4.443

           -------------------------------------------------
          | TOTAL ENERGY              -90.280892917099 Eh   |
          | GRADIENT NORM               0.000596157575 Eh/α |
          | HOMO-LUMO GAP               1.644291345482 eV   |
           -------------------------------------------------

 * finished run on 2025/07/29 at 12:34:09.197
