                         Program Version 6.0.1  -  RELEASE   -
|  1> # Automatically generated ORCA input
|  2>
|  3> # Number of cores
|  4> %pal nprocs 24 end
|  5> # RAM per core
|  6> %maxcore 2560
|  7>
|  8> ! wB97X-D3
|  9> ! 6-31G**
| 10> ! TightSCF
| 11> ! NoSym
| 12> ! IRC
| 13>
| 14> %geom
| 15>     Calc_Hess true
| 16>     end
| 17>
| 18>
| 19> *xyz 0 1
| 20> C         2.21533800      0.84553300      0.88555300
| 21> C         1.42287400     -0.29179500      0.62211300
| 22> C         1.91995400     -1.54566300      1.00608600
| 23> C         3.14998800     -1.69150000      1.63810200
| 24> C         3.91810600     -0.56518700      1.90601600
| 25> C         3.45008600      0.68873500      1.52885000
| 26> H         1.33014900     -2.43617700      0.79634400
| 27> H         3.50419500     -2.67927800      1.91995400
| 28> H         4.88007000     -0.65756300      2.40279600
| 29> H         4.05375800      1.56611700      1.73530100
| 30> N         1.75026600      2.14189900      0.48077500
| 31> C         2.39069400      2.72114900     -0.72740000
| 32> C         1.19292200      3.01864900      1.54028900
| 33> C         1.44327100      3.78580500     -1.31046000
| 34> C         2.55739800      1.62431400     -1.79165700
| 35> C         3.79115100      3.33911600     -0.50611000
| 36> C         0.30272300      4.08312100      0.87182400
| 37> C         0.28849300      2.19092900      2.46424600
| 38> C         2.24508700      3.70555700      2.44134500
| 39> H         1.93917300      4.27706100     -2.15631900
| 40> H         0.55921400      3.27016200     -1.70806500
| 41> C         0.98799900      4.80898300     -0.27816300
| 42> H         2.92154000      2.07577900     -2.72020200
| 43> H         1.60478500      1.13187700     -1.99848100
| 44> H         3.27932000      0.86359300     -1.48323700
| 45> H         3.78097400      4.19660200      0.16872600
| 46> H         4.19534000      3.68438400     -1.46401600
| 47> H         4.48915400      2.59867500     -0.10729800
| 48> H        -0.03709500      4.79140100      1.63681300
| 49> H        -0.59002200      3.57654100      0.48101700
| 50> H         0.84579000      1.42439500      3.00917500
| 51> H        -0.17910200      2.85390400      3.19935700
| 52> H        -0.50491100      1.69279800      1.90236800
| 53> H         2.88174800      2.96462200      2.93211600
| 54> H         1.74168000      4.27486700      3.23021700
| 55> H         2.88783500      4.39948600      1.89700800
| 56> H         0.29749500      5.52679600     -0.73548200
| 57> H         1.84063100      5.39542600      0.08710000
| 58> B        -0.01903200     -0.15170000     -0.05145100
| 59> H        -0.22217000      0.73260300     -0.83461600
| 60> C        -1.85601600     -3.47731700     -3.43738800
| 61> H        -2.16741500     -2.72638800     -4.16781400
| 62> H        -0.76371800     -3.52763100     -3.45090500
| 63> H        -2.25489900     -4.44719800     -3.74772200
| 64> C        -3.89185100     -2.98707900     -2.06162400
| 65> H        -4.33500800     -3.98084900     -2.18069600
| 66> H        -4.22185700     -2.36531100     -2.89818300
| 67> H        -4.26695000     -2.54307000     -1.13771200
| 68> C        -2.63349300     -3.93629800      0.36492300
| 69> H        -3.51862300     -4.56145900      0.21488300
| 70> H        -2.05520600     -4.34914000      1.19536600
| 71> H        -2.95311200     -2.93347400      0.65589700
| 72> C        -1.35714700     -5.33623900     -1.26634700
| 73> H        -2.23124900     -5.91346600     -1.58409900
| 74> C        -2.37201400     -3.06786200     -2.05865200
| 75> C        -1.75834400     -3.91842800     -0.88582300
| 76> O        -1.84899600     -1.74258400     -1.80492200
| 77> O        -0.55018400     -3.18358600     -0.56784800
| 78> B        -0.76519500     -1.89905600     -0.98091100
| 79> H        -0.91909100     -5.83343000     -0.39720300
| 80> H        -0.61799600     -5.34511200     -2.06884000
| 81> H         0.21315700     -1.15100000     -1.11599500
| 82> C        -2.96401900      0.83174400     -0.44134800
| 83> N        -2.54518100     -0.02101300      0.65512800
| 84> C        -1.27280700     -0.55489700      0.83108800
| 85> C        -1.30395700     -1.22458600      2.05338700
| 86> C        -2.58866100     -1.09660900      2.60891200
| 87> C        -3.32843000     -0.34502000      1.71440800
| 88> H        -2.38569200      1.75941300     -0.44724700
| 89> H        -4.02021200      1.07254400     -0.30880100
| 90> H        -2.82743000      0.31505600     -1.39230800
| 91> H        -0.45732400     -1.73927600      2.48726700
| 92> H        -2.94592100     -1.49858400      3.54652900
| 93> H        -4.35535200     -0.00800000      1.76324000
| 94> *
| 95>
| 96>
| 97>                          ****END OF INPUT****

CARTESIAN COORDINATES (ANGSTROEM)
---------------------------------
  C      2.215338    0.845533    0.885553
  C      1.422874   -0.291795    0.622113
  C      1.919954   -1.545663    1.006086
  C      3.149988   -1.691500    1.638102
  C      3.918106   -0.565187    1.906016
  C      3.450086    0.688735    1.528850
  H      1.330149   -2.436177    0.796344
  H      3.504195   -2.679278    1.919954
  H      4.880070   -0.657563    2.402796
  H      4.053758    1.566117    1.735301
  N      1.750266    2.141899    0.480775
  C      2.390694    2.721149   -0.727400
  C      1.192922    3.018649    1.540289
  C      1.443271    3.785805   -1.310460
  C      2.557398    1.624314   -1.791657
  C      3.791151    3.339116   -0.506110
  C      0.302723    4.083121    0.871824
  C      0.288493    2.190929    2.464246
  C      2.245087    3.705557    2.441345
  H      1.939173    4.277061   -2.156319
  H      0.559214    3.270162   -1.708065
  C      0.987999    4.808983   -0.278163
  H      2.921540    2.075779   -2.720202
  H      1.604785    1.131877   -1.998481
  H      3.279320    0.863593   -1.483237
  H      3.780974    4.196602    0.168726
  H      4.195340    3.684384   -1.464016
  H      4.489154    2.598675   -0.107298
  H     -0.037095    4.791401    1.636813
  H     -0.590022    3.576541    0.481017
  H      0.845790    1.424395    3.009175
  H     -0.179102    2.853904    3.199357
  H     -0.504911    1.692798    1.902368
  H      2.881748    2.964622    2.932116
  H      1.741680    4.274867    3.230217
  H      2.887835    4.399486    1.897008
  H      0.297495    5.526796   -0.735482
  H      1.840631    5.395426    0.087100
  B     -0.019032   -0.151700   -0.051451
  H     -0.222170    0.732603   -0.834616
  C     -1.856016   -3.477317   -3.437388
  H     -2.167415   -2.726388   -4.167814
  H     -0.763718   -3.527631   -3.450905
  H     -2.254899   -4.447198   -3.747722
  C     -3.891851   -2.987079   -2.061624
  H     -4.335008   -3.980849   -2.180696
  H     -4.221857   -2.365311   -2.898183
  H     -4.266950   -2.543070   -1.137712
  C     -2.633493   -3.936298    0.364923
  H     -3.518623   -4.561459    0.214883
  H     -2.055206   -4.349140    1.195366
  H     -2.953112   -2.933474    0.655897
  C     -1.357147   -5.336239   -1.266347
  H     -2.231249   -5.913466   -1.584099
  C     -2.372014   -3.067862   -2.058652
  C     -1.758344   -3.918428   -0.885823
  O     -1.848996   -1.742584   -1.804922
  O     -0.550184   -3.183586   -0.567848
  B     -0.765195   -1.899056   -0.980911
  H     -0.919091   -5.833430   -0.397203
  H     -0.617996   -5.345112   -2.068840
  H      0.213157   -1.151000   -1.115995
  C     -2.964019    0.831744   -0.441348
  N     -2.545181   -0.021013    0.655128
  C     -1.272807   -0.554897    0.831088
  C     -1.303957   -1.224586    2.053387
  C     -2.588661   -1.096609    2.608912
  C     -3.328430   -0.345020    1.714408
  H     -2.385692    1.759413   -0.447247
  H     -4.020212    1.072544   -0.308801
  H     -2.827430    0.315056   -1.392308
  H     -0.457324   -1.739276    2.487267
  H     -2.945921   -1.498584    3.546529
  H     -4.355352   -0.008000    1.763240

 Total Charge           Charge          ....    0
 Multiplicity           Mult            ....    1
 Number of Electrons    NEL             ....  238
 Basis Dimension        Dim             ....  658

ORBITAL ENERGIES
----------------

  NO   OCC          E(Eh)            E(eV)
   0   2.0000     -19.257688      -524.0283
   1   2.0000     -19.257078      -524.0117
   2   2.0000     -14.482029      -394.0760
   3   2.0000     -14.400395      -391.8547
   4   2.0000     -10.357728      -281.8481
   5   2.0000     -10.355444      -281.7859
   6   2.0000     -10.314363      -280.6681
   7   2.0000     -10.309130      -280.5257
   8   2.0000     -10.308242      -280.5015
   9   2.0000     -10.306343      -280.4499
  10   2.0000     -10.298161      -280.2272
  11   2.0000     -10.284505      -279.8556
  12   2.0000     -10.282377      -279.7977
  13   2.0000     -10.282012      -279.7878
  14   2.0000     -10.281274      -279.7677
  15   2.0000     -10.272938      -279.5409
  16   2.0000     -10.272937      -279.5408
  17   2.0000     -10.270828      -279.4834
  18   2.0000     -10.267847      -279.4023
  19   2.0000     -10.267291      -279.3872
  20   2.0000     -10.266874      -279.3758
  21   2.0000     -10.265325      -279.3337
  22   2.0000     -10.263583      -279.2863
  23   2.0000     -10.263423      -279.2819
  24   2.0000     -10.262707      -279.2624
  25   2.0000     -10.255118      -279.0560
  26   2.0000     -10.254583      -279.0414
  27   2.0000     -10.254579      -279.0413
  28   2.0000     -10.252280      -278.9787
  29   2.0000     -10.249143      -278.8934
  30   2.0000      -6.907970      -187.9754
  31   2.0000      -6.824103      -185.6933
  32   2.0000      -1.186635       -32.2900
  33   2.0000      -1.116549       -30.3828
  34   2.0000      -1.096260       -29.8308
  35   2.0000      -1.028675       -27.9917
  36   2.0000      -0.948177       -25.8012
  37   2.0000      -0.930493       -25.3200
  38   2.0000      -0.911174       -24.7943
  39   2.0000      -0.908474       -24.7208
  40   2.0000      -0.899660       -24.4810
  41   2.0000      -0.872463       -23.7409
  42   2.0000      -0.847262       -23.0552
  43   2.0000      -0.840936       -22.8830
  44   2.0000      -0.828247       -22.5377
  45   2.0000      -0.826603       -22.4930
  46   2.0000      -0.811445       -22.0805
  47   2.0000      -0.796304       -21.6685
  48   2.0000      -0.794545       -21.6207
  49   2.0000      -0.786056       -21.3897
  50   2.0000      -0.776282       -21.1237
  51   2.0000      -0.770365       -20.9627
  52   2.0000      -0.743156       -20.2223
  53   2.0000      -0.714248       -19.4357
  54   2.0000      -0.703603       -19.1460
  55   2.0000      -0.685770       -18.6608
  56   2.0000      -0.677018       -18.4226
  57   2.0000      -0.666615       -18.1395
  58   2.0000      -0.665201       -18.1010
  59   2.0000      -0.664890       -18.0926
  60   2.0000      -0.645902       -17.5759
  61   2.0000      -0.630272       -17.1506
  62   2.0000      -0.616507       -16.7760
  63   2.0000      -0.600832       -16.3495
  64   2.0000      -0.583224       -15.8703
  65   2.0000      -0.580061       -15.7843
  66   2.0000      -0.574054       -15.6208
  67   2.0000      -0.565547       -15.3893
  68   2.0000      -0.559271       -15.2185
  69   2.0000      -0.555175       -15.1071
  70   2.0000      -0.550669       -14.9845
  71   2.0000      -0.549252       -14.9459
  72   2.0000      -0.543249       -14.7825
  73   2.0000      -0.538792       -14.6613
  74   2.0000      -0.525508       -14.2998
  75   2.0000      -0.520478       -14.1629
  76   2.0000      -0.519152       -14.1268
  77   2.0000      -0.507228       -13.8024
  78   2.0000      -0.504236       -13.7210
  79   2.0000      -0.503796       -13.7090
  80   2.0000      -0.501621       -13.6498
  81   2.0000      -0.499753       -13.5990
  82   2.0000      -0.499054       -13.5799
  83   2.0000      -0.497884       -13.5481
  84   2.0000      -0.493314       -13.4238
  85   2.0000      -0.486281       -13.2324
  86   2.0000      -0.483633       -13.1603
  87   2.0000      -0.478188       -13.0122
  88   2.0000      -0.474340       -12.9074
  89   2.0000      -0.473380       -12.8813
  90   2.0000      -0.467081       -12.7099
  91   2.0000      -0.465572       -12.6689
  92   2.0000      -0.464020       -12.6266
  93   2.0000      -0.463628       -12.6160
  94   2.0000      -0.459746       -12.5103
  95   2.0000      -0.456222       -12.4144
  96   2.0000      -0.454423       -12.3655
  97   2.0000      -0.447835       -12.1862
  98   2.0000      -0.442029       -12.0282
  99   2.0000      -0.440535       -11.9876
 100   2.0000      -0.437118       -11.8946
 101   2.0000      -0.433366       -11.7925
 102   2.0000      -0.429551       -11.6887
 103   2.0000      -0.426081       -11.5943
 104   2.0000      -0.420273       -11.4362
 105   2.0000      -0.418218       -11.3803
 106   2.0000      -0.405319       -11.0293
 107   2.0000      -0.402757       -10.9596
 108   2.0000      -0.397980       -10.8296
 109   2.0000      -0.391367       -10.6496
 110   2.0000      -0.384847       -10.4722
 111   2.0000      -0.383361       -10.4318
 112   2.0000      -0.368861       -10.0372
 113   2.0000      -0.367368        -9.9966
 114   2.0000      -0.317111        -8.6290
 115   2.0000      -0.312618        -8.5068
 116   2.0000      -0.306552        -8.3417
 117   2.0000      -0.286614        -7.7992
 118   2.0000      -0.271375        -7.3845
 119   0.0000       0.053851         1.4654
 120   0.0000       0.090796         2.4707
 121   0.0000       0.093322         2.5394
 122   0.0000       0.143257         3.8982
 123   0.0000       0.155765         4.2386

MULLIKEN ATOMIC CHARGES
-----------------------
   0 C :    0.135999
   1 C :    0.044129
   2 C :   -0.181256
   3 C :   -0.111640
   4 C :   -0.142211
   5 C :   -0.104817
   6 H :    0.125357
   7 H :    0.111293
   8 H :    0.113263
   9 H :    0.106194
  10 N :   -0.506749
  11 C :    0.152385
  12 C :    0.148964
  13 C :   -0.186304
  14 C :   -0.336771
  15 C :   -0.328037
  16 C :   -0.185205
  17 C :   -0.330330
  18 C :   -0.328047
  19 H :    0.097834
  20 H :    0.106905
  21 C :   -0.230281
  22 H :    0.103278
  23 H :    0.121336
  24 H :    0.123687
  25 H :    0.101225
  26 H :    0.104194
  27 H :    0.111780
  28 H :    0.098950
  29 H :    0.100819
  30 H :    0.124377
  31 H :    0.102113
  32 H :    0.122717
  33 H :    0.112761
  34 H :    0.104272
  35 H :    0.100218
  36 H :    0.109630
  37 H :    0.100789
  38 B :    0.037464
  39 H :   -0.047909
  40 C :   -0.351440
  41 H :    0.134212
  42 H :    0.132028
  43 H :    0.118287
  44 C :   -0.351689
  45 H :    0.118962
  46 H :    0.129846
  47 H :    0.132972
  48 C :   -0.341220
  49 H :    0.110537
  50 H :    0.132289
  51 H :    0.139355
  52 C :   -0.352769
  53 H :    0.116623
  54 C :    0.213209
  55 C :    0.202830
  56 O :   -0.488274
  57 O :   -0.478032
  58 B :    0.565451
  59 H :    0.135801
  60 H :    0.130771
  61 H :   -0.005196
  62 C :   -0.211255
  63 N :   -0.405568
  64 C :    0.050118
  65 C :   -0.139100
  66 C :   -0.194845
  67 C :    0.042881
  68 H :    0.150995
  69 H :    0.124401
  70 H :    0.165061
  71 H :    0.123070
  72 H :    0.116369
  73 H :    0.130947
Sum of atomic charges:   -0.0000000

LOEWDIN ATOMIC CHARGES
----------------------
   0 C :    0.038436
   1 C :   -0.038156
   2 C :   -0.079324
   3 C :   -0.087314
   4 C :   -0.085150
   5 C :   -0.095776
   6 H :    0.081284
   7 H :    0.075436
   8 H :    0.075836
   9 H :    0.075248
  10 N :   -0.137553
  11 C :    0.036909
  12 C :    0.035134
  13 C :   -0.122579
  14 C :   -0.200411
  15 C :   -0.216974
  16 C :   -0.121846
  17 C :   -0.197480
  18 C :   -0.216831
  19 H :    0.066659
  20 H :    0.069119
  21 C :   -0.136687
  22 H :    0.069884
  23 H :    0.077745
  24 H :    0.076607
  25 H :    0.065053
  26 H :    0.070103
  27 H :    0.072496
  28 H :    0.067256
  29 H :    0.065979
  30 H :    0.077756
  31 H :    0.070054
  32 H :    0.080789
  33 H :    0.073031
  34 H :    0.069917
  35 H :    0.064819
  36 H :    0.070594
  37 H :    0.063930
  38 B :   -0.214530
  39 H :    0.011939
  40 C :   -0.206082
  41 H :    0.083511
  42 H :    0.080869
  43 H :    0.076615
  44 C :   -0.204989
  45 H :    0.077880
  46 H :    0.082003
  47 H :    0.082403
  48 C :   -0.204827
  49 H :    0.074224
  50 H :    0.084240
  51 H :    0.087855
  52 C :   -0.204343
  53 H :    0.076943
  54 C :    0.092204
  55 C :    0.092528
  56 O :   -0.114961
  57 O :   -0.111258
  58 B :   -0.058771
  59 H :    0.084998
  60 H :    0.080981
  61 H :    0.126207
  62 C :   -0.115245
  63 N :    0.041775
  64 C :   -0.047180
  65 C :   -0.085305
  66 C :   -0.150239
  67 C :   -0.061272
  68 H :    0.083191
  69 H :    0.079230
  70 H :    0.090007
  71 H :    0.081914
  72 H :    0.077160
  73 H :    0.076332

  Mayer bond orders larger than 0.100000
B(  0-C ,  1-C ) :   1.4252 B(  0-C ,  5-C ) :   1.4017 B(  0-C , 10-N ) :   0.9657
B(  1-C ,  2-C ) :   1.3752 B(  1-C , 38-B ) :   0.9805 B(  2-C ,  3-C ) :   1.4374
B(  2-C ,  6-H ) :   0.9271 B(  3-C ,  4-C ) :   1.4458 B(  3-C ,  7-H ) :   0.9505
B(  4-C ,  5-C ) :   1.4308 B(  4-C ,  8-H ) :   0.9476 B(  5-C ,  9-H ) :   0.9403
B( 10-N , 11-C ) :   0.9458 B( 10-N , 12-C ) :   0.9472 B( 11-C , 13-C ) :   0.9822
B( 11-C , 14-C ) :   0.9996 B( 11-C , 15-C ) :   0.9733 B( 12-C , 16-C ) :   0.9820
B( 12-C , 17-C ) :   0.9992 B( 12-C , 18-C ) :   0.9728 B( 13-C , 19-H ) :   0.9537
B( 13-C , 20-H ) :   0.9531 B( 13-C , 21-C ) :   0.9979 B( 14-C , 22-H ) :   0.9599
B( 14-C , 23-H ) :   0.9543 B( 14-C , 24-H ) :   0.9558 B( 15-C , 25-H ) :   0.9587
B( 15-C , 26-H ) :   0.9579 B( 15-C , 27-H ) :   0.9581 B( 16-C , 21-C ) :   0.9982
B( 16-C , 28-H ) :   0.9538 B( 16-C , 29-H ) :   0.9517 B( 17-C , 30-H ) :   0.9553
B( 17-C , 31-H ) :   0.9594 B( 17-C , 32-H ) :   0.9496 B( 18-C , 33-H ) :   0.9583
B( 18-C , 34-H ) :   0.9580 B( 18-C , 35-H ) :   0.9589 B( 21-C , 36-H ) :   0.9591
B( 21-C , 37-H ) :   0.9550 B( 38-B , 39-H ) :   0.9328 B( 38-B , 58-B ) :   0.2678
B( 38-B , 61-H ) :   0.2894 B( 38-B , 64-C ) :   0.8839 B( 40-C , 41-H ) :   0.9561
B( 40-C , 42-H ) :   0.9571 B( 40-C , 43-H ) :   0.9531 B( 40-C , 54-C ) :   0.9939
B( 44-C , 45-H ) :   0.9561 B( 44-C , 46-H ) :   0.9576 B( 44-C , 47-H ) :   0.9529
B( 44-C , 54-C ) :   1.0053 B( 48-C , 49-H ) :   0.9529 B( 48-C , 50-H ) :   0.9558
B( 48-C , 51-H ) :   0.9448 B( 48-C , 55-C ) :   0.9949 B( 52-C , 53-H ) :   0.9559
B( 52-C , 55-C ) :   1.0073 B( 52-C , 59-H ) :   0.9572 B( 52-C , 60-H ) :   0.9544
B( 54-C , 55-C ) :   0.9566 B( 54-C , 56-O ) :   0.8554 B( 55-C , 57-O ) :   0.8591
B( 56-O , 58-B ) :   1.0967 B( 57-O , 58-B ) :   1.1176 B( 58-B , 61-H ) :   0.6423
B( 58-B , 64-C ) :   0.1581 B( 62-C , 63-N ) :   0.9269 B( 62-C , 68-H ) :   0.9481
B( 62-C , 69-H ) :   0.9628 B( 62-C , 70-H ) :   0.9352 B( 63-N , 64-C ) :   1.0716
B( 63-N , 67-C ) :   1.2188 B( 64-C , 65-C ) :   1.4481 B( 65-C , 66-C ) :   1.4064
B( 65-C , 71-H ) :   0.9435 B( 66-C , 67-C ) :   1.4954 B( 66-C , 72-H ) :   0.9529
B( 67-C , 73-H ) :   0.9442

Dispersion correction           -0.053084578
FINAL SINGLE POINT ENERGY     -1325.537696591600
Dispersion correction             ... done (  0.1 sec)

DIPOLE MOMENT
-------------

Method             : SCF
Type of density    : Electron Density
Multiplicity       :   1
Irrep              :   0
Energy             : -1325.4846120139459345 Eh
Relativity type    :
Basis              : AO
                                X                 Y                 Z
Electronic contribution:      0.636022756     -11.611950703       6.231174157
Nuclear contribution   :     -1.964979096      10.898756627      -6.833606896
                        -----------------------------------------
Total Dipole Moment    :     -1.328956340      -0.713194077      -0.602432739
                        -----------------------------------------
Magnitude (a.u.)       :      1.624098504
Magnitude (Debye)      :      4.128130328

--------------------------
THERMOCHEMISTRY AT 298.15K
--------------------------

Temperature         ...   298.15 K
Pressure            ...     1.00 atm
Total Mass          ...   436.25 AMU
Quasi RRHO          ...     True
Cut-Off Frequency   ...     1.00 cm^-1

Throughout the following assumptions are being made:
  (1) The electronic state is orbitally nondegenerate
  (2) There are no thermally accessible electronically excited states
  (3) Hindered rotations indicated by low frequency modes are not
      treated as such but are treated as vibrations and this may
      cause some error
  (4) All equations used are the standard statistical mechanics
      equations for an ideal gas
  (5) All vibrations are strictly harmonic

freq.      24.81  E(vib)   ...       0.56
freq.      34.52  E(vib)   ...       0.54
freq.      63.20  E(vib)   ...       0.51
freq.      76.61  E(vib)   ...       0.49
freq.      78.37  E(vib)   ...       0.49
freq.      87.15  E(vib)   ...       0.48
freq.     100.05  E(vib)   ...       0.46
freq.     110.29  E(vib)   ...       0.45
freq.     122.82  E(vib)   ...       0.43
freq.     125.33  E(vib)   ...       0.43
freq.     151.44  E(vib)   ...       0.40
freq.     153.14  E(vib)   ...       0.40
freq.     164.72  E(vib)   ...       0.39
freq.     188.63  E(vib)   ...       0.36
freq.     198.94  E(vib)   ...       0.35
freq.     205.36  E(vib)   ...       0.35
freq.     220.77  E(vib)   ...       0.33
freq.     244.16  E(vib)   ...       0.31
freq.     246.63  E(vib)   ...       0.31
freq.     256.79  E(vib)   ...       0.30
freq.     264.65  E(vib)   ...       0.29
freq.     272.92  E(vib)   ...       0.29
freq.     285.57  E(vib)   ...       0.28
freq.     289.78  E(vib)   ...       0.27
freq.     297.13  E(vib)   ...       0.27
freq.     301.03  E(vib)   ...       0.26
freq.     306.71  E(vib)   ...       0.26
freq.     309.17  E(vib)   ...       0.26
freq.     317.84  E(vib)   ...       0.25
freq.     322.67  E(vib)   ...       0.25
freq.     326.67  E(vib)   ...       0.24
freq.     331.22  E(vib)   ...       0.24
freq.     341.64  E(vib)   ...       0.23
freq.     359.62  E(vib)   ...       0.22
freq.     367.32  E(vib)   ...       0.21
freq.     372.42  E(vib)   ...       0.21
freq.     384.48  E(vib)   ...       0.20
freq.     394.86  E(vib)   ...       0.20
freq.     403.94  E(vib)   ...       0.19
freq.     413.93  E(vib)   ...       0.19
freq.     420.45  E(vib)   ...       0.18
freq.     439.68  E(vib)   ...       0.17
freq.     451.81  E(vib)   ...       0.16
freq.     478.71  E(vib)   ...       0.15
freq.     482.81  E(vib)   ...       0.15
freq.     497.41  E(vib)   ...       0.14
freq.     524.18  E(vib)   ...       0.13
freq.     526.38  E(vib)   ...       0.13
freq.     535.04  E(vib)   ...       0.13
freq.     556.12  E(vib)   ...       0.12
freq.     574.64  E(vib)   ...       0.11
freq.     587.65  E(vib)   ...       0.10
freq.     589.42  E(vib)   ...       0.10
freq.     592.51  E(vib)   ...       0.10
freq.     621.48  E(vib)   ...       0.09
freq.     629.39  E(vib)   ...       0.09
freq.     647.08  E(vib)   ...       0.09
freq.     675.02  E(vib)   ...       0.08
freq.     678.85  E(vib)   ...       0.08
freq.     685.09  E(vib)   ...       0.07
freq.     747.57  E(vib)   ...       0.06
freq.     760.84  E(vib)   ...       0.06
freq.     766.84  E(vib)   ...       0.06
freq.     777.40  E(vib)   ...       0.05
freq.     789.13  E(vib)   ...       0.05
freq.     791.51  E(vib)   ...       0.05
freq.     806.27  E(vib)   ...       0.05
freq.     827.61  E(vib)   ...       0.04
freq.     833.73  E(vib)   ...       0.04
freq.     847.93  E(vib)   ...       0.04
freq.     878.82  E(vib)   ...       0.04
freq.     893.90  E(vib)   ...       0.03
freq.     895.89  E(vib)   ...       0.03
freq.     901.72  E(vib)   ...       0.03
freq.     912.67  E(vib)   ...       0.03
freq.     923.04  E(vib)   ...       0.03
freq.     929.60  E(vib)   ...       0.03
freq.     930.92  E(vib)   ...       0.03
freq.     935.37  E(vib)   ...       0.03
freq.     936.14  E(vib)   ...       0.03
freq.     946.73  E(vib)   ...       0.03
freq.     953.85  E(vib)   ...       0.03
freq.     963.81  E(vib)   ...       0.03
freq.     975.80  E(vib)   ...       0.03
freq.     982.62  E(vib)   ...       0.02
freq.     991.99  E(vib)   ...       0.02
freq.    1001.68  E(vib)   ...       0.02
freq.    1002.31  E(vib)   ...       0.02
freq.    1020.57  E(vib)   ...       0.02
freq.    1020.88  E(vib)   ...       0.02
freq.    1024.02  E(vib)   ...       0.02
freq.    1028.31  E(vib)   ...       0.02
freq.    1030.55  E(vib)   ...       0.02
freq.    1041.46  E(vib)   ...       0.02
freq.    1052.53  E(vib)   ...       0.02
freq.    1073.59  E(vib)   ...       0.02
freq.    1082.78  E(vib)   ...       0.02
freq.    1085.92  E(vib)   ...       0.02
freq.    1090.77  E(vib)   ...       0.02
freq.    1095.31  E(vib)   ...       0.02
freq.    1100.90  E(vib)   ...       0.02
freq.    1114.46  E(vib)   ...       0.01
freq.    1132.12  E(vib)   ...       0.01
freq.    1144.69  E(vib)   ...       0.01
freq.    1160.96  E(vib)   ...       0.01
freq.    1162.46  E(vib)   ...       0.01
freq.    1164.95  E(vib)   ...       0.01
freq.    1188.22  E(vib)   ...       0.01
freq.    1194.25  E(vib)   ...       0.01
freq.    1196.99  E(vib)   ...       0.01
freq.    1207.69  E(vib)   ...       0.01
freq.    1209.17  E(vib)   ...       0.01
freq.    1224.45  E(vib)   ...       0.01
freq.    1240.11  E(vib)   ...       0.01
freq.    1251.52  E(vib)   ...       0.01
freq.    1254.28  E(vib)   ...       0.01
freq.    1262.16  E(vib)   ...       0.01
freq.    1266.45  E(vib)   ...       0.01
freq.    1267.77  E(vib)   ...       0.01
freq.    1272.90  E(vib)   ...       0.01
freq.    1292.24  E(vib)   ...       0.01
freq.    1308.07  E(vib)   ...       0.01
freq.    1310.28  E(vib)   ...       0.01
freq.    1316.73  E(vib)   ...       0.01
freq.    1323.59  E(vib)   ...       0.01
freq.    1334.49  E(vib)   ...       0.01
freq.    1347.40  E(vib)   ...       0.01
freq.    1365.03  E(vib)   ...       0.01
freq.    1382.68  E(vib)   ...       0.01
freq.    1384.82  E(vib)   ...       0.00
freq.    1402.61  E(vib)   ...       0.00
freq.    1409.45  E(vib)   ...       0.00
freq.    1410.80  E(vib)   ...       0.00
freq.    1413.83  E(vib)   ...       0.00
freq.    1420.60  E(vib)   ...       0.00
freq.    1422.11  E(vib)   ...       0.00
freq.    1425.90  E(vib)   ...       0.00
freq.    1431.99  E(vib)   ...       0.00
freq.    1434.12  E(vib)   ...       0.00
freq.    1438.77  E(vib)   ...       0.00
freq.    1439.47  E(vib)   ...       0.00
freq.    1445.09  E(vib)   ...       0.00

Rotational constants in cm-1:     0.007866     0.003118     0.002958

                      ***********************HURRAY********************
                      ***********************HURRAY********************
                             ****ORCA TERMINATED NORMALLY****
TOTAL RUN TIME: 0 days 8 hours 5 minutes 46 seconds 436 msec
