                         Program Version 6.0.1  -  RELEASE   -
|  1> # Automatically generated ORCA input
|  2>
|  3> # Number of cores
|  4> %pal nprocs 24 end
|  5> # RAM per core
|  6> %maxcore 2560
|  7>
|  8> ! wB97X-D3
|  9> ! 6-31G**
| 10> ! TightSCF
| 11> ! Freq
| 12> ! NoSym
| 13> ! IRC
| 14>
| 15> %IRC
| 16>     MAXITER 40
| 17>     END
| 18>
| 19> %geom
| 20>   Calc_Hess true
| 21> end
| 22>
| 23>
| 24> *xyz 0 1
| 25> H         1.11908790     -4.66011265      1.57567101
| 26> C         0.65541845     -3.70759858      1.33529412
| 27> C         1.44536956     -2.59824283      1.05956982
| 28> C        -0.72788453     -3.58718427      1.29363804
| 29> C         0.89719542     -1.34509377      0.74579185
| 30> H         2.52756132     -2.70502211      1.07926470
| 31> C        -1.29748521     -2.36026846      0.97527988
| 32> H        -1.36508632     -4.44109396      1.50503021
| 33> C        -0.50771580     -1.23660179      0.70144308
| 34> H        -2.37723166     -2.27338675      0.93952963
| 35> B         1.97613667     -0.19659391      0.51159616
| 36> H        -0.92242033      2.72401151      0.93970032
| 37> H        -2.42914286      2.79308707      1.84679985
| 38> H        -2.42046447      1.67799216     -2.31462983
| 39> H        -0.91631322      2.06599911     -1.48702662
| 40> H        -2.74422067      3.43326361     -0.55624857
| 41> H        -3.68310141      2.00255235     -0.17455745
| 42> N        -1.10643290      0.03142628      0.35883470
| 43> C        -0.70799664      0.80071974      2.66632209
| 44> H        -0.57371235     -0.19669936      3.09224394
| 45> H         0.27228035      1.17172282      2.35676361
| 46> H        -1.08480303      1.45808120      3.45604047
| 47> C        -3.03460357      0.23262473      2.04594152
| 48> C        -1.70586485      0.79421826      1.49752282
| 49> C        -1.70921947      0.11837635     -1.00887666
| 50> C        -1.90860257      2.25301694      1.04758785
| 51> C        -1.90479832      1.60789178     -1.35020054
| 52> C        -2.65717472      2.37859236     -0.27303311
| 53> H        -2.91923852     -0.79852449      2.38710019
| 54> H        -3.84933354      0.26705170      1.32117590
| 55> H        -3.34415721      0.82709048      2.91190049
| 56> C        -3.04201195     -0.63601306     -1.20232762
| 57> H        -3.37818426     -0.50783452     -2.23643216
| 58> H        -2.91772938     -1.70816368     -1.03521068
| 59> H        -3.84197148     -0.27846112     -0.55258262
| 60> C        -0.71581232     -0.46788594     -2.02476629
| 61> H         0.27152289     -0.00391168     -1.95399480
| 62> H        -1.09616667     -0.29805911     -3.03682790
| 63> H        -0.59094121     -1.54559993     -1.89095104
| 64> H         2.35123259      0.40722732      1.48659776
| 65> H         0.54274914      0.90856622      0.08562837
| 66> H         1.25149649      1.23542353     -0.01389725
| 67> C         4.46560521      1.57246386     -0.07841259
| 68> N         4.06072144      0.45655408     -0.90669412
| 69> C         2.95025232     -0.34606245     -0.69103884
| 70> C         2.93055015     -1.26335243     -1.73507337
| 71> C         4.03253169     -1.01300836     -2.58074707
| 72> C         4.70572831      0.06060275     -2.03832732
| 73> H         3.71301622      2.36700973     -0.08980893
| 74> H         5.40265425      1.97758118     -0.46432001
| 75> H         4.61990567      1.25394624      0.95511540
| 76> H         2.18720674     -2.04161338     -1.85095713
| 77> H         4.31094766     -1.55011331     -3.47665202
| 78> H         5.59932665      0.57087808     -2.37248622
| 79> *
| 80>
| 81>
| 82>                          ****END OF INPUT****

CARTESIAN COORDINATES (ANGSTROEM)
---------------------------------
  H      1.119088   -4.660113    1.575671
  C      0.655418   -3.707599    1.335294
  C      1.445370   -2.598243    1.059570
  C     -0.727885   -3.587184    1.293638
  C      0.897195   -1.345094    0.745792
  H      2.527561   -2.705022    1.079265
  C     -1.297485   -2.360268    0.975280
  H     -1.365086   -4.441094    1.505030
  C     -0.507716   -1.236602    0.701443
  H     -2.377232   -2.273387    0.939530
  B      1.976137   -0.196594    0.511596
  H     -0.922420    2.724012    0.939700
  H     -2.429143    2.793087    1.846800
  H     -2.420464    1.677992   -2.314630
  H     -0.916313    2.065999   -1.487027
  H     -2.744221    3.433264   -0.556249
  H     -3.683101    2.002552   -0.174557
  N     -1.106433    0.031426    0.358835
  C     -0.707997    0.800720    2.666322
  H     -0.573712   -0.196699    3.092244
  H      0.272280    1.171723    2.356764
  H     -1.084803    1.458081    3.456040
  C     -3.034604    0.232625    2.045942
  C     -1.705865    0.794218    1.497523
  C     -1.709219    0.118376   -1.008877
  C     -1.908603    2.253017    1.047588
  C     -1.904798    1.607892   -1.350201
  C     -2.657175    2.378592   -0.273033
  H     -2.919239   -0.798524    2.387100
  H     -3.849334    0.267052    1.321176
  H     -3.344157    0.827090    2.911900
  C     -3.042012   -0.636013   -1.202328
  H     -3.378184   -0.507835   -2.236432
  H     -2.917729   -1.708164   -1.035211
  H     -3.841971   -0.278461   -0.552583
  C     -0.715812   -0.467886   -2.024766
  H      0.271523   -0.003912   -1.953995
  H     -1.096167   -0.298059   -3.036828
  H     -0.590941   -1.545600   -1.890951
  H      2.351233    0.407227    1.486598
  H      0.542749    0.908566    0.085628
  H      1.251496    1.235424   -0.013897
  C      4.465605    1.572464   -0.078413
  N      4.060721    0.456554   -0.906694
  C      2.950252   -0.346062   -0.691039
  C      2.930550   -1.263352   -1.735073
  C      4.032532   -1.013008   -2.580747
  C      4.705728    0.060603   -2.038327
  H      3.713016    2.367010   -0.089809
  H      5.402654    1.977581   -0.464320
  H      4.619906    1.253946    0.955115
  H      2.187207   -2.041613   -1.850957
  H      4.310948   -1.550113   -3.476652
  H      5.599327    0.570878   -2.372486

 Total Charge           Charge          ....    0
 Multiplicity           Mult            ....    1
 Number of Electrons    NEL             ....  170
 Basis Dimension        Dim             ....  477

ORBITAL ENERGIES
----------------

  NO   OCC          E(Eh)            E(eV)
   0   2.0000     -14.472567      -393.8186
   1   2.0000     -14.430964      -392.6865
   2   2.0000     -10.325789      -280.9790
   3   2.0000     -10.325037      -280.9585
   4   2.0000     -10.319689      -280.8130
   5   2.0000     -10.311154      -280.5808
   6   2.0000     -10.294953      -280.1399
   7   2.0000     -10.280818      -279.7553
   8   2.0000     -10.279508      -279.7196
   9   2.0000     -10.279320      -279.7145
  10   2.0000     -10.279206      -279.7114
  11   2.0000     -10.277781      -279.6726
  12   2.0000     -10.276972      -279.6506
  13   2.0000     -10.276920      -279.6492
  14   2.0000     -10.268879      -279.4304
  15   2.0000     -10.268256      -279.4134
  16   2.0000     -10.267069      -279.3811
  17   2.0000     -10.266022      -279.3527
  18   2.0000     -10.265574      -279.3405
  19   2.0000     -10.262927      -279.2684
  20   2.0000     -10.255242      -279.0593
  21   2.0000     -10.253756      -279.0189
  22   2.0000      -6.831668      -185.8991
  23   2.0000      -1.087402       -29.5897
  24   2.0000      -1.047921       -28.5154
  25   2.0000      -0.959154       -26.0999
  26   2.0000      -0.924017       -25.1438
  27   2.0000      -0.913900       -24.8685
  28   2.0000      -0.904894       -24.6234
  29   2.0000      -0.856436       -23.3048
  30   2.0000      -0.851768       -23.1778
  31   2.0000      -0.826756       -22.4972
  32   2.0000      -0.817324       -22.2405
  33   2.0000      -0.800106       -21.7720
  34   2.0000      -0.791067       -21.5260
  35   2.0000      -0.790076       -21.4991
  36   2.0000      -0.784926       -21.3589
  37   2.0000      -0.725550       -19.7432
  38   2.0000      -0.708869       -19.2893
  39   2.0000      -0.689709       -18.7679
  40   2.0000      -0.681611       -18.5476
  41   2.0000      -0.666181       -18.1277
  42   2.0000      -0.657552       -17.8929
  43   2.0000      -0.632718       -17.2171
  44   2.0000      -0.620985       -16.8978
  45   2.0000      -0.604222       -16.4417
  46   2.0000      -0.591617       -16.0987
  47   2.0000      -0.572920       -15.5899
  48   2.0000      -0.570846       -15.5335
  49   2.0000      -0.562961       -15.3189
  50   2.0000      -0.555849       -15.1254
  51   2.0000      -0.548416       -14.9232
  52   2.0000      -0.534502       -14.5445
  53   2.0000      -0.527534       -14.3549
  54   2.0000      -0.523586       -14.2475
  55   2.0000      -0.516288       -14.0489
  56   2.0000      -0.514214       -13.9925
  57   2.0000      -0.506995       -13.7960
  58   2.0000      -0.501688       -13.6516
  59   2.0000      -0.497706       -13.5433
  60   2.0000      -0.491110       -13.3638
  61   2.0000      -0.485048       -13.1988
  62   2.0000      -0.480567       -13.0769
  63   2.0000      -0.471278       -12.8241
  64   2.0000      -0.468482       -12.7481
  65   2.0000      -0.466315       -12.6891
  66   2.0000      -0.460827       -12.5397
  67   2.0000      -0.455480       -12.3942
  68   2.0000      -0.452819       -12.3218
  69   2.0000      -0.449880       -12.2419
  70   2.0000      -0.448717       -12.2102
  71   2.0000      -0.443062       -12.0563
  72   2.0000      -0.433409       -11.7937
  73   2.0000      -0.432666       -11.7734
  74   2.0000      -0.416739       -11.3400
  75   2.0000      -0.411346       -11.1933
  76   2.0000      -0.405617       -11.0374
  77   2.0000      -0.397979       -10.8296
  78   2.0000      -0.392165       -10.6713
  79   2.0000      -0.381713       -10.3869
  80   2.0000      -0.322343        -8.7714
  81   2.0000      -0.312929        -8.5152
  82   2.0000      -0.308213        -8.3869
  83   2.0000      -0.305337        -8.3086
  84   2.0000      -0.277224        -7.5436
  85   0.0000       0.073259         1.9935
  86   0.0000       0.081849         2.2272
  87   0.0000       0.086562         2.3555
  88   0.0000       0.156668         4.2632
  89   0.0000       0.165085         4.4922

MULLIKEN ATOMIC CHARGES
-----------------------
   0 H :    0.117419
   1 C :   -0.106310
   2 C :   -0.176189
   3 C :   -0.144765
   4 C :    0.043405
   5 H :    0.119926
   6 C :   -0.106241
   7 H :    0.117339
   8 C :    0.157908
   9 H :    0.109574
  10 B :   -0.041796
  11 H :    0.105933
  12 H :    0.107665
  13 H :    0.108188
  14 H :    0.108450
  15 H :    0.117601
  16 H :    0.104778
  17 N :   -0.555460
  18 C :   -0.336165
  19 H :    0.132660
  20 H :    0.122113
  21 H :    0.110372
  22 C :   -0.331952
  23 C :    0.149469
  24 C :    0.147516
  25 C :   -0.192953
  26 C :   -0.193438
  27 C :   -0.228726
  28 H :    0.119504
  29 H :    0.105352
  30 H :    0.111834
  31 C :   -0.331613
  32 H :    0.112270
  33 H :    0.119038
  34 H :    0.104488
  35 C :   -0.336990
  36 H :    0.127939
  37 H :    0.111413
  38 H :    0.127250
  39 H :   -0.046593
  40 H :    0.082594
  41 H :    0.017753
  42 C :   -0.202604
  43 N :   -0.444275
  44 C :    0.209092
  45 C :   -0.184016
  46 C :   -0.191929
  47 C :    0.050686
  48 H :    0.138560
  49 H :    0.132543
  50 H :    0.152833
  51 H :    0.113157
  52 H :    0.110761
  53 H :    0.124632
Sum of atomic charges:    0.0000000

LOEWDIN ATOMIC CHARGES
----------------------
   0 H :    0.078401
   1 C :   -0.081428
   2 C :   -0.065125
   3 C :   -0.086790
   4 C :   -0.035270
   5 H :    0.081660
   6 C :   -0.094256
   7 H :    0.077624
   8 C :    0.021733
   9 H :    0.076739
  10 B :   -0.180840
  11 H :    0.068513
  12 H :    0.071337
  13 H :    0.071531
  14 H :    0.069368
  15 H :    0.074220
  16 H :    0.065562
  17 N :   -0.136845
  18 C :   -0.200145
  19 H :    0.080933
  20 H :    0.077712
  21 H :    0.073514
  22 C :   -0.214740
  23 C :    0.033958
  24 C :    0.033671
  25 C :   -0.124166
  26 C :   -0.124006
  27 C :   -0.135426
  28 H :    0.076100
  29 H :    0.066711
  30 H :    0.074200
  31 C :   -0.215059
  32 H :    0.074451
  33 H :    0.075664
  34 H :    0.066682
  35 C :   -0.201018
  36 H :    0.079864
  37 H :    0.074396
  38 H :    0.078178
  39 H :   -0.003568
  40 H :    0.117580
  41 H :    0.052446
  42 C :   -0.112081
  43 N :    0.026730
  44 C :   -0.059712
  45 C :   -0.105503
  46 C :   -0.149514
  47 C :   -0.064806
  48 H :    0.077948
  49 H :    0.082579
  50 H :    0.085570
  51 H :    0.076494
  52 H :    0.074767
  53 H :    0.073462

  Mayer bond orders larger than 0.100000
B(  0-H ,  1-C ) :   0.9491 B(  1-C ,  2-C ) :   1.4447 B(  1-C ,  3-C ) :   1.4445
B(  2-C ,  4-C ) :   1.4026 B(  2-C ,  5-H ) :   0.9382 B(  3-C ,  6-C ) :   1.4381
B(  3-C ,  7-H ) :   0.9468 B(  4-C ,  8-C ) :   1.4120 B(  4-C , 10-B ) :   0.9627
B(  6-C ,  8-C ) :   1.4030 B(  6-C ,  9-H ) :   0.9401 B(  8-C , 17-N ) :   0.8988
B( 10-B , 39-H ) :   0.9404 B( 10-B , 40-H ) :   0.1334 B( 10-B , 41-H ) :   0.2100
B( 10-B , 44-C ) :   1.0551 B( 11-H , 25-C ) :   0.9536 B( 12-H , 25-C ) :   0.9537
B( 13-H , 26-C ) :   0.9536 B( 14-H , 26-C ) :   0.9533 B( 15-H , 27-C ) :   0.9581
B( 16-H , 27-C ) :   0.9551 B( 17-N , 23-C ) :   0.9103 B( 17-N , 24-C ) :   0.9075
B( 17-N , 40-H ) :   0.1030 B( 18-C , 19-H ) :   0.9541 B( 18-C , 20-H ) :   0.9529
B( 18-C , 21-H ) :   0.9587 B( 18-C , 23-C ) :   1.0006 B( 22-C , 23-C ) :   0.9821
B( 22-C , 28-H ) :   0.9554 B( 22-C , 29-H ) :   0.9576 B( 22-C , 30-H ) :   0.9570
B( 23-C , 25-C ) :   0.9821 B( 24-C , 26-C ) :   0.9822 B( 24-C , 31-C ) :   0.9817
B( 24-C , 35-C ) :   0.9996 B( 25-C , 27-C ) :   0.9959 B( 26-C , 27-C ) :   0.9955
B( 31-C , 32-H ) :   0.9569 B( 31-C , 33-H ) :   0.9559 B( 31-C , 34-H ) :   0.9577
B( 35-C , 36-H ) :   0.9488 B( 35-C , 37-H ) :   0.9589 B( 35-C , 38-H ) :   0.9543
B( 40-H , 41-H ) :   0.7375 B( 42-C , 43-N ) :   0.9354 B( 42-C , 48-H ) :   0.9541
B( 42-C , 49-H ) :   0.9630 B( 42-C , 50-H ) :   0.9518 B( 43-N , 44-C ) :   1.0626
B( 43-N , 47-C ) :   1.1896 B( 44-C , 45-C ) :   1.4742 B( 45-C , 46-C ) :   1.3890
B( 45-C , 51-H ) :   0.9474 B( 46-C , 47-C ) :   1.5356 B( 46-C , 52-H ) :   0.9534
B( 47-C , 53-H ) :   0.9452

Dispersion correction           -0.034500851
FINAL SINGLE POINT ENERGY      -914.921079421481
Dispersion correction             ... done (  0.0 sec)

DIPOLE MOMENT
-------------

Method             : SCF
Type of density    : Electron Density
Multiplicity       :   1
Irrep              :   0
Energy             :  -914.8865785707049554 Eh
Relativity type    :
Basis              : AO
                                X                 Y                 Z
Electronic contribution:     14.585540391     -12.070534045      -1.325569902
Nuclear contribution   :    -14.899127257      12.808452516       1.440758119
                        -----------------------------------------
Total Dipole Moment    :     -0.313586866       0.737918471       0.115188217
                        -----------------------------------------
Magnitude (a.u.)       :      0.810017726
Magnitude (Debye)      :      2.058901436

VIBRATIONAL FREQUENCIES
-----------------------

Scaling factor for frequencies =  1.000000000  (already applied!)

     0:       0.00 cm**-1
     1:       0.00 cm**-1
     2:       0.00 cm**-1
     3:       0.00 cm**-1
     4:       0.00 cm**-1
     5:       0.00 cm**-1
     6:    -330.77 cm**-1  ***imaginary mode***
     7:      35.48 cm**-1
     8:      49.61 cm**-1
     9:      50.81 cm**-1
    10:      72.21 cm**-1
    11:      88.79 cm**-1
    12:      92.83 cm**-1
    13:      94.28 cm**-1
    14:     134.77 cm**-1
    15:     162.07 cm**-1
    16:     170.41 cm**-1
    17:     192.01 cm**-1
    18:     199.62 cm**-1
    19:     217.83 cm**-1
    20:     240.15 cm**-1
    21:     242.68 cm**-1
    22:     267.24 cm**-1
    23:     286.91 cm**-1
    24:     297.40 cm**-1
    25:     303.28 cm**-1
    26:     312.26 cm**-1
    27:     316.74 cm**-1
    28:     327.95 cm**-1
    29:     351.61 cm**-1
    30:     362.84 cm**-1
    31:     374.02 cm**-1
    32:     400.42 cm**-1
    33:     415.99 cm**-1
    34:     431.74 cm**-1
    35:     446.90 cm**-1
    36:     475.06 cm**-1
    37:     483.77 cm**-1
    38:     500.51 cm**-1
    39:     521.50 cm**-1
    40:     545.34 cm**-1
    41:     573.37 cm**-1
    42:     581.64 cm**-1
    43:     597.15 cm**-1
    44:     612.26 cm**-1
    45:     628.36 cm**-1
    46:     646.27 cm**-1
    47:     661.97 cm**-1
    48:     683.80 cm**-1
    49:     696.04 cm**-1
    50:     748.50 cm**-1
    51:     754.02 cm**-1
    52:     776.23 cm**-1
    53:     784.00 cm**-1
    54:     796.70 cm**-1
    55:     823.50 cm**-1
    56:     834.71 cm**-1
    57:     836.37 cm**-1
    58:     850.39 cm**-1
    59:     881.77 cm**-1
    60:     898.71 cm**-1
    61:     910.51 cm**-1
    62:     914.71 cm**-1
    63:     919.22 cm**-1
    64:     935.16 cm**-1
    65:     941.04 cm**-1
    66:     943.26 cm**-1
    67:     956.81 cm**-1
    68:     977.31 cm**-1
    69:     992.49 cm**-1
    70:     999.52 cm**-1
    71:    1017.12 cm**-1
    72:    1022.90 cm**-1
    73:    1023.33 cm**-1
    74:    1028.11 cm**-1
    75:    1034.66 cm**-1
    76:    1076.42 cm**-1
    77:    1078.08 cm**-1
    78:    1084.48 cm**-1
    79:    1090.83 cm**-1
    80:    1092.36 cm**-1
    81:    1092.52 cm**-1
    82:    1099.23 cm**-1
    83:    1120.11 cm**-1
    84:    1125.92 cm**-1
    85:    1144.04 cm**-1
    86:    1155.77 cm**-1
    87:    1187.46 cm**-1
    88:    1192.63 cm**-1
    89:    1195.64 cm**-1
    90:    1227.70 cm**-1
    91:    1239.37 cm**-1
    92:    1250.90 cm**-1
    93:    1263.21 cm**-1
    94:    1268.36 cm**-1
    95:    1272.21 cm**-1
    96:    1279.38 cm**-1
    97:    1299.24 cm**-1
    98:    1304.71 cm**-1
    99:    1321.02 cm**-1
   100:    1330.10 cm**-1
   101:    1339.31 cm**-1
   102:    1378.02 cm**-1
   103:    1386.61 cm**-1
   104:    1408.83 cm**-1
   105:    1409.85 cm**-1
   106:    1416.45 cm**-1
   107:    1426.33 cm**-1
   108:    1434.35 cm**-1
   109:    1438.93 cm**-1
   110:    1444.32 cm**-1
   111:    1472.49 cm**-1
   112:    1487.59 cm**-1
   113:    1488.11 cm**-1
   114:    1488.92 cm**-1
   115:    1494.90 cm**-1
   116:    1496.03 cm**-1
   117:    1501.16 cm**-1
   118:    1503.16 cm**-1
   119:    1508.52 cm**-1
   120:    1512.90 cm**-1
   121:    1518.78 cm**-1
   122:    1519.75 cm**-1
   123:    1522.59 cm**-1
   124:    1524.04 cm**-1
   125:    1533.28 cm**-1
   126:    1536.25 cm**-1
   127:    1542.24 cm**-1
   128:    1552.64 cm**-1
   129:    1613.24 cm**-1
   130:    1657.46 cm**-1
   131:    1687.89 cm**-1
   132:    2567.17 cm**-1
   133:    3063.33 cm**-1
   134:    3065.52 cm**-1
   135:    3075.51 cm**-1
   136:    3077.79 cm**-1
   137:    3082.11 cm**-1
   138:    3083.57 cm**-1
   139:    3088.19 cm**-1
   140:    3092.10 cm**-1
   141:    3116.60 cm**-1
   142:    3118.29 cm**-1
   143:    3126.43 cm**-1
   144:    3156.41 cm**-1
   145:    3161.57 cm**-1
   146:    3163.57 cm**-1
   147:    3166.97 cm**-1
   148:    3169.26 cm**-1
   149:    3180.03 cm**-1
   150:    3183.77 cm**-1
   151:    3185.49 cm**-1
   152:    3189.93 cm**-1
   153:    3200.84 cm**-1
   154:    3205.79 cm**-1
   155:    3215.43 cm**-1
   156:    3232.15 cm**-1
   157:    3255.70 cm**-1
   158:    3270.81 cm**-1
   159:    3278.65 cm**-1
   160:    3298.65 cm**-1
   161:    3622.43 cm**-1

IR SPECTRUM
-----------

 Mode   freq       eps      Int      T**2         TX        TY        TZ
       cm**-1   L/(mol*cm) km/mol    a.u.
----------------------------------------------------------------------------
  7:     35.48   0.000091    0.46  0.000798  (-0.008047 -0.011320  0.024592)
  8:     49.61   0.000087    0.44  0.000545  ( 0.018559 -0.011968  0.007597)
  9:     50.81   0.000022    0.11  0.000137  (-0.007337  0.001984 -0.008888)
 10:     72.21   0.000301    1.52  0.001301  ( 0.034500 -0.010288 -0.002136)
 11:     88.79   0.000010    0.05  0.000036  ( 0.003963  0.001269 -0.004367)
 12:     92.83   0.000102    0.52  0.000343  (-0.007905  0.003436  0.016398)
 13:     94.28   0.000007    0.04  0.000023  (-0.000785  0.000854  0.004682)
 14:    134.77   0.000003    0.01  0.000006  (-0.000502  0.002155  0.000976)
 15:    162.07   0.001635    8.26  0.003148  (-0.055118  0.009848  0.003599)
 16:    170.41   0.000303    1.53  0.000555  ( 0.021577 -0.008194  0.004683)
 17:    192.01   0.000486    2.46  0.000790  ( 0.026854 -0.006151 -0.005592)
 18:    199.62   0.000025    0.13  0.000040  (-0.003795 -0.003413  0.003686)
 19:    217.83   0.001207    6.10  0.001729  ( 0.037842 -0.016284  0.005663)
 20:    240.15   0.000220    1.11  0.000285  (-0.011923 -0.009903  0.006723)
 21:    242.68   0.000987    4.99  0.001269  (-0.025403  0.016228 -0.018976)
 22:    267.24   0.000039    0.20  0.000045  (-0.004629 -0.001730  0.004573)
 23:    286.91   0.000175    0.89  0.000191  ( 0.010015 -0.007166 -0.006239)
 24:    297.40   0.000131    0.66  0.000137  ( 0.001603 -0.008481 -0.007908)
 25:    303.28   0.000249    1.26  0.000256  ( 0.011853 -0.010760 -0.000203)
 26:    312.26   0.000505    2.55  0.000504  ( 0.015923 -0.013740 -0.007878)
 27:    316.74   0.000151    0.76  0.000149  ( 0.010477 -0.006256 -0.000052)
 28:    327.95   0.000268    1.36  0.000255  (-0.003854  0.009879  0.011952)
 29:    351.61   0.000349    1.77  0.000310  (-0.006658  0.008088  0.014151)
 30:    362.84   0.000127    0.64  0.000109  (-0.004158  0.008992  0.003295)
 31:    374.02   0.000860    4.34  0.000717  ( 0.025429  0.006808 -0.004928)
 32:    400.42   0.000023    0.12  0.000018  (-0.001757 -0.003780 -0.000688)
 33:    415.99   0.000062    0.32  0.000047  ( 0.002535  0.002758  0.005724)
 34:    431.74   0.000101    0.51  0.000073  ( 0.006181 -0.005273  0.002710)
 35:    446.90   0.000229    1.16  0.000160  ( 0.005746 -0.011260  0.000530)
 36:    475.06   0.000141    0.71  0.000093  ( 0.001967  0.004629  0.008205)
 37:    483.77   0.000023    0.12  0.000015  ( 0.002085 -0.003064 -0.001036)
 38:    500.51   0.000043    0.22  0.000027  (-0.001741  0.003578  0.003351)
 39:    521.50   0.001062    5.37  0.000635  ( 0.022026  0.011792 -0.003332)
 40:    545.34   0.000605    3.06  0.000346  (-0.011011 -0.009401 -0.011697)
 41:    573.37   0.000478    2.41  0.000260  ( 0.007721  0.013301 -0.004835)
 42:    581.64   0.001251    6.32  0.000671  ( 0.001274  0.005534  0.025276)
 43:    597.15   0.002216   11.20  0.001158  ( 0.008404  0.032539 -0.005351)
 44:    612.26   0.003501   17.69  0.001785  (-0.036175 -0.020479 -0.007520)
 45:    628.36   0.000991    5.01  0.000492  (-0.007310  0.015144 -0.014465)
 46:    646.27   0.003802   19.21  0.001836  (-0.033514 -0.018052  0.019665)
 47:    661.97   0.004778   24.15  0.002252  (-0.041812 -0.021966  0.004652)
 48:    683.80   0.001772    8.96  0.000809  (-0.018553 -0.020071  0.007860)
 49:    696.04   0.001349    6.82  0.000605  (-0.009078 -0.016305  0.016023)
 50:    748.50   0.004019   20.31  0.001676  ( 0.003006  0.013466  0.038537)
 51:    754.02   0.009426   47.63  0.003901  ( 0.036641 -0.040206  0.030689)
 52:    776.23   0.002254   11.39  0.000906  ( 0.001199 -0.011295 -0.027878)
 53:    784.00   0.000083    0.42  0.000033  (-0.002107  0.000612  0.005307)
 54:    796.70   0.002099   10.61  0.000822  ( 0.001365  0.001416 -0.028606)
 55:    823.50   0.000838    4.23  0.000317  (-0.005348  0.001765  0.016903)
 56:    834.71   0.000887    4.48  0.000332  (-0.008469  0.014124 -0.007775)
 57:    836.37   0.000538    2.72  0.000201  (-0.013813  0.003171  0.000106)
 58:    850.39   0.000065    0.33  0.000024  ( 0.002704  0.003838 -0.001300)
 59:    881.77   0.000009    0.04  0.000003  (-0.000485  0.001667 -0.000132)
 60:    898.71   0.000042    0.21  0.000014  (-0.003712 -0.000390  0.000713)
 61:    910.51   0.000263    1.33  0.000090  (-0.004718  0.006524 -0.005045)
 62:    914.71   0.000471    2.38  0.000161  ( 0.011202 -0.002266 -0.005498)
 63:    919.22   0.000161    0.81  0.000055  (-0.005359 -0.004997 -0.000995)
 64:    935.16   0.000239    1.21  0.000080  (-0.001336  0.003147  0.008244)
 65:    941.04   0.000118    0.60  0.000039  ( 0.002204  0.001922  0.005527)
 66:    943.26   0.000101    0.51  0.000033  (-0.003157 -0.003108  0.003703)
 67:    956.81   0.000783    3.96  0.000255  ( 0.015215 -0.004395  0.002127)
 68:    977.31   0.000681    3.44  0.000217  (-0.013694 -0.005041  0.002099)
 69:    992.49   0.000443    2.24  0.000139  ( 0.005581  0.006032 -0.008475)
 70:    999.52   0.001769    8.94  0.000552  (-0.009003  0.021152 -0.004893)
 71:   1017.12   0.000017    0.08  0.000005  ( 0.000501 -0.001419 -0.001673)
 72:   1022.90   0.000953    4.81  0.000291  (-0.016823  0.002283  0.001545)
 73:   1023.33   0.000508    2.57  0.000155  ( 0.010423  0.006356 -0.002402)
 74:   1028.11   0.003222   16.28  0.000978  ( 0.007020 -0.030459  0.000949)
 75:   1034.66   0.003614   18.27  0.001090  ( 0.031687  0.008216  0.004309)
 76:   1076.42   0.001289    6.51  0.000374  (-0.013711  0.012923 -0.004315)
 77:   1078.08   0.002032   10.27  0.000588  (-0.001618 -0.007939 -0.022857)
 78:   1084.48   0.007919   40.02  0.002279  (-0.040696 -0.010214  0.022765)
 79:   1090.83   0.000896    4.53  0.000256  (-0.014183  0.003926 -0.006298)
 80:   1092.36   0.001007    5.09  0.000288  ( 0.008847 -0.003029 -0.014147)
 81:   1092.52   0.008259   41.74  0.002359  ( 0.046388  0.003784 -0.013892)
 82:   1099.23   0.000134    0.68  0.000038  (-0.004386  0.001166 -0.004181)
 83:   1120.11   0.000351    1.78  0.000098  (-0.003022  0.002442  0.009099)
 84:   1125.92   0.005391   27.25  0.001494  ( 0.013705 -0.018117 -0.031277)
 85:   1144.04   0.001219    6.16  0.000332  (-0.016732  0.006633 -0.002913)
 86:   1155.77   0.000050    0.25  0.000013  (-0.001118 -0.002130 -0.002776)
 87:   1187.46   0.008516   43.03  0.002238  ( 0.000413 -0.011895 -0.045784)
 88:   1192.63   0.001082    5.47  0.000283  ( 0.011835 -0.011934  0.000823)
 89:   1195.64   0.001543    7.80  0.000403  (-0.011329  0.015340  0.006249)
 90:   1227.70   0.005244   26.50  0.001333  ( 0.035602 -0.008030 -0.000982)
 91:   1239.37   0.001131    5.72  0.000285  ( 0.001771 -0.016396  0.003590)
 92:   1250.90   0.000724    3.66  0.000181  ( 0.000634  0.001857  0.013294)
 93:   1263.21   0.000553    2.80  0.000137  (-0.005810  0.010069 -0.001238)
 94:   1268.36   0.001577    7.97  0.000388  ( 0.005998  0.017074 -0.007784)
 95:   1272.21   0.000334    1.69  0.000082  ( 0.001293  0.004654  0.007662)
 96:   1279.38   0.008528   43.10  0.002080  ( 0.030301  0.023970 -0.024238)
 97:   1299.24   0.000626    3.16  0.000150  ( 0.011319 -0.001456 -0.004487)
 98:   1304.71   0.007850   39.67  0.001878  (-0.002103  0.007982  0.042539)
 99:   1321.02   0.008014   40.50  0.001893  (-0.042813 -0.003413  0.006961)
100:   1330.10   0.008685   43.89  0.002038  ( 0.019853 -0.039533  0.008979)
101:   1339.31   0.004207   21.26  0.000980  (-0.027007  0.015789  0.001220)
102:   1378.02   0.011074   55.96  0.002508  ( 0.016026 -0.020844 -0.042620)
103:   1386.61   0.000022    0.11  0.000005  (-0.000530  0.000577  0.002102)
104:   1408.83   0.002056   10.39  0.000455  (-0.013600 -0.016395  0.001316)
105:   1409.85   0.000587    2.97  0.000130  (-0.003022 -0.001532  0.010887)
106:   1416.45   0.000165    0.84  0.000036  (-0.000920 -0.001759 -0.005699)
107:   1426.33   0.004938   24.96  0.001080  (-0.031965 -0.005405 -0.005423)
108:   1434.35   0.004559   23.04  0.000992  (-0.025805  0.001559  0.017991)
109:   1438.93   0.007639   38.60  0.001657  ( 0.011199 -0.008301 -0.038240)
110:   1444.32   0.000925    4.68  0.000200  (-0.013543 -0.002218 -0.003409)
111:   1472.49   0.005537   27.98  0.001173  ( 0.027839  0.018513 -0.007458)
112:   1487.59   0.004173   21.09  0.000875  (-0.025162 -0.002487  0.015367)
113:   1488.11   0.004408   22.28  0.000924  (-0.023125 -0.000551  0.019733)
114:   1488.92   0.004270   21.58  0.000895  ( 0.013230 -0.025081  0.009531)
115:   1494.90   0.000370    1.87  0.000077  ( 0.005586  0.003409  0.005865)
116:   1496.03   0.000591    2.99  0.000123  ( 0.010681  0.002298 -0.001967)
117:   1501.16   0.001893    9.57  0.000394  ( 0.013428 -0.007157  0.012728)
118:   1503.16   0.000050    0.25  0.000010  (-0.001235  0.000275 -0.002947)
119:   1508.52   0.000267    1.35  0.000055  ( 0.006189  0.001521 -0.003828)
120:   1512.90   0.001893    9.56  0.000390  (-0.018299 -0.007450  0.000168)
121:   1518.78   0.002300   11.62  0.000473  (-0.013992  0.016370 -0.002971)
122:   1519.75   0.000015    0.07  0.000003  (-0.000326 -0.001285 -0.001123)
123:   1522.59   0.010614   53.64  0.002175  ( 0.036338  0.029181 -0.001853)
124:   1524.04   0.002719   13.74  0.000557  (-0.000540 -0.005287 -0.022990)
125:   1533.28   0.000191    0.97  0.000039  ( 0.001655  0.005999 -0.000389)
126:   1536.25   0.000567    2.86  0.000115  ( 0.002092 -0.010250  0.002384)
127:   1542.24   0.006863   34.68  0.001389  (-0.021801  0.029866 -0.004635)
128:   1552.64   0.003689   18.64  0.000742  (-0.024439 -0.011929 -0.001405)
129:   1613.24   0.005741   29.01  0.001111  (-0.012023  0.016538  0.026315)
130:   1657.46   0.001437    7.26  0.000270  (-0.015685  0.004599  0.001825)
131:   1687.89   0.000858    4.33  0.000159  ( 0.000684 -0.012216  0.002975)
132:   2567.17   0.024952  126.10  0.003033  (-0.012515 -0.029287 -0.044931)
133:   3063.33   0.002928   14.80  0.000298  (-0.006449 -0.009667 -0.012776)
134:   3065.52   0.004726   23.88  0.000481  (-0.015985 -0.011385  0.009795)
135:   3075.51   0.005100   25.77  0.000518  (-0.016587  0.015040 -0.004022)
136:   3077.79   0.008465   42.78  0.000858  (-0.007803 -0.024853 -0.013408)
137:   3082.11   0.001850    9.35  0.000187  (-0.005942  0.003024  0.011951)
138:   3083.57   0.002262   11.43  0.000229  ( 0.013421  0.002968  0.006323)
139:   3088.19   0.006695   33.83  0.000677  ( 0.001524  0.007594  0.024830)
140:   3092.10   0.004039   20.41  0.000408  ( 0.019930  0.001889 -0.002615)
141:   3116.60   0.008623   43.58  0.000863  (-0.016443  0.023916  0.004590)
142:   3118.29   0.006139   31.02  0.000614  ( 0.005226 -0.004125  0.023876)
143:   3126.43   0.009650   48.77  0.000963  ( 0.027528  0.013846 -0.003699)
144:   3156.41   0.003447   17.42  0.000341  (-0.014369  0.007819 -0.008552)
145:   3161.57   0.000771    3.90  0.000076  (-0.002319  0.004900  0.006834)
146:   3163.57   0.002583   13.05  0.000255  ( 0.012792 -0.001077  0.009486)
147:   3166.97   0.008529   43.10  0.000840  ( 0.001232 -0.003044 -0.028804)
148:   3169.26   0.010948   55.33  0.001078  ( 0.015704 -0.028720  0.002567)
149:   3180.03   0.002211   11.17  0.000217  (-0.006588 -0.012650 -0.003677)
150:   3183.77   0.003179   16.07  0.000312  ( 0.009666  0.012748 -0.007461)
151:   3185.49   0.002856   14.43  0.000280  ( 0.012280  0.005169 -0.010111)
152:   3189.93   0.002656   13.42  0.000260  (-0.000203 -0.002036 -0.015990)
153:   3200.84   0.001141    5.77  0.000111  ( 0.010421  0.001272 -0.001027)
154:   3205.79   0.006311   31.89  0.000614  ( 0.020456 -0.013765  0.002543)
155:   3215.43   0.002372   11.99  0.000230  (-0.014975 -0.002400  0.000455)
156:   3232.15   0.005940   30.02  0.000573  ( 0.005641 -0.022248  0.006832)
157:   3255.70   0.002064   10.43  0.000198  ( 0.013186  0.004451 -0.002047)
158:   3270.81   0.000568    2.87  0.000054  (-0.005698  0.000013  0.004666)
159:   3278.65   0.001384    6.99  0.000132  (-0.008533 -0.007670 -0.000212)
160:   3298.65   0.001577    7.97  0.000149  ( 0.007062 -0.003094 -0.009474)
161:   3622.43   0.210607  1064.32  0.018143  (-0.130799 -0.009827  0.030631)

--------------------------
THERMOCHEMISTRY AT 298.15K
--------------------------

Temperature         ...   298.15 K
Pressure            ...     1.00 atm
Total Mass          ...   310.29 AMU
Quasi RRHO          ...     True
Cut-Off Frequency   ...     1.00 cm^-1

Throughout the following assumptions are being made:
  (1) The electronic state is orbitally nondegenerate
  (2) There are no thermally accessible electronically excited states
  (3) Hindered rotations indicated by low frequency modes are not
      treated as such but are treated as vibrations and this may
      cause some error
  (4) All equations used are the standard statistical mechanics
      equations for an ideal gas
  (5) All vibrations are strictly harmonic

freq.      35.48  E(vib)   ...       0.54
freq.      49.61  E(vib)   ...       0.52
freq.      50.81  E(vib)   ...       0.52
freq.      72.21  E(vib)   ...       0.50
freq.      88.79  E(vib)   ...       0.47
freq.      92.83  E(vib)   ...       0.47
freq.      94.28  E(vib)   ...       0.47
freq.     134.77  E(vib)   ...       0.42
freq.     162.07  E(vib)   ...       0.39
freq.     170.41  E(vib)   ...       0.38
freq.     192.01  E(vib)   ...       0.36
freq.     199.62  E(vib)   ...       0.35
freq.     217.83  E(vib)   ...       0.33
freq.     240.15  E(vib)   ...       0.31
freq.     242.68  E(vib)   ...       0.31
freq.     267.24  E(vib)   ...       0.29
freq.     286.91  E(vib)   ...       0.27
freq.     297.40  E(vib)   ...       0.27
freq.     303.28  E(vib)   ...       0.26
freq.     312.26  E(vib)   ...       0.25
freq.     316.74  E(vib)   ...       0.25
freq.     327.95  E(vib)   ...       0.24
freq.     351.61  E(vib)   ...       0.23
freq.     362.84  E(vib)   ...       0.22
freq.     374.02  E(vib)   ...       0.21
freq.     400.42  E(vib)   ...       0.19
freq.     415.99  E(vib)   ...       0.18
freq.     431.74  E(vib)   ...       0.18
freq.     446.90  E(vib)   ...       0.17
freq.     475.06  E(vib)   ...       0.15
freq.     483.77  E(vib)   ...       0.15
freq.     500.51  E(vib)   ...       0.14
freq.     521.50  E(vib)   ...       0.13
freq.     545.34  E(vib)   ...       0.12
freq.     573.37  E(vib)   ...       0.11
freq.     581.64  E(vib)   ...       0.11
freq.     597.15  E(vib)   ...       0.10
freq.     612.26  E(vib)   ...       0.10
freq.     628.36  E(vib)   ...       0.09
freq.     646.27  E(vib)   ...       0.09
freq.     661.97  E(vib)   ...       0.08
freq.     683.80  E(vib)   ...       0.07
freq.     696.04  E(vib)   ...       0.07
freq.     748.50  E(vib)   ...       0.06
freq.     754.02  E(vib)   ...       0.06
freq.     776.23  E(vib)   ...       0.05
freq.     784.00  E(vib)   ...       0.05
freq.     796.70  E(vib)   ...       0.05
freq.     823.50  E(vib)   ...       0.05
freq.     834.71  E(vib)   ...       0.04
freq.     836.37  E(vib)   ...       0.04
freq.     850.39  E(vib)   ...       0.04
freq.     881.77  E(vib)   ...       0.04
freq.     898.71  E(vib)   ...       0.03
freq.     910.51  E(vib)   ...       0.03
freq.     914.71  E(vib)   ...       0.03
freq.     919.22  E(vib)   ...       0.03
freq.     935.16  E(vib)   ...       0.03
freq.     941.04  E(vib)   ...       0.03
freq.     943.26  E(vib)   ...       0.03
freq.     956.81  E(vib)   ...       0.03
freq.     977.31  E(vib)   ...       0.03
freq.     992.49  E(vib)   ...       0.02
freq.     999.52  E(vib)   ...       0.02
freq.    1017.12  E(vib)   ...       0.02
freq.    1022.90  E(vib)   ...       0.02
freq.    1023.33  E(vib)   ...       0.02
freq.    1028.11  E(vib)   ...       0.02
freq.    1034.66  E(vib)   ...       0.02
freq.    1076.42  E(vib)   ...       0.02
freq.    1078.08  E(vib)   ...       0.02
freq.    1084.48  E(vib)   ...       0.02
freq.    1090.83  E(vib)   ...       0.02
freq.    1092.36  E(vib)   ...       0.02
freq.    1092.52  E(vib)   ...       0.02
freq.    1099.23  E(vib)   ...       0.02
freq.    1120.11  E(vib)   ...       0.01
freq.    1125.92  E(vib)   ...       0.01
freq.    1144.04  E(vib)   ...       0.01
freq.    1155.77  E(vib)   ...       0.01
freq.    1187.46  E(vib)   ...       0.01
freq.    1192.63  E(vib)   ...       0.01
freq.    1195.64  E(vib)   ...       0.01
freq.    1227.70  E(vib)   ...       0.01
freq.    1239.37  E(vib)   ...       0.01
freq.    1250.90  E(vib)   ...       0.01
freq.    1263.21  E(vib)   ...       0.01
freq.    1268.36  E(vib)   ...       0.01
freq.    1272.21  E(vib)   ...       0.01
freq.    1279.38  E(vib)   ...       0.01
freq.    1299.24  E(vib)   ...       0.01
freq.    1304.71  E(vib)   ...       0.01
freq.    1321.02  E(vib)   ...       0.01
freq.    1330.10  E(vib)   ...       0.01
freq.    1339.31  E(vib)   ...       0.01
freq.    1378.02  E(vib)   ...       0.01
freq.    1386.61  E(vib)   ...       0.00
freq.    1408.83  E(vib)   ...       0.00
freq.    1409.85  E(vib)   ...       0.00
freq.    1416.45  E(vib)   ...       0.00
freq.    1426.33  E(vib)   ...       0.00
freq.    1434.35  E(vib)   ...       0.00
freq.    1438.93  E(vib)   ...       0.00
freq.    1444.32  E(vib)   ...       0.00
freq.    1472.49  E(vib)   ...       0.00
freq.    1487.59  E(vib)   ...       0.00
freq.    1488.11  E(vib)   ...       0.00
freq.    1488.92  E(vib)   ...       0.00
freq.    1494.90  E(vib)   ...       0.00
freq.    1496.03  E(vib)   ...       0.00
freq.    1501.16  E(vib)   ...       0.00
freq.    1503.16  E(vib)   ...       0.00
freq.    1508.52  E(vib)   ...       0.00
freq.    1512.90  E(vib)   ...       0.00
freq.    1518.78  E(vib)   ...       0.00
freq.    1519.75  E(vib)   ...       0.00
freq.    1522.59  E(vib)   ...       0.00
freq.    1524.04  E(vib)   ...       0.00
freq.    1533.28  E(vib)   ...       0.00
freq.    1536.25  E(vib)   ...       0.00
freq.    1542.24  E(vib)   ...       0.00
freq.    1552.64  E(vib)   ...       0.00
freq.    1613.24  E(vib)   ...       0.00
freq.    1657.46  E(vib)   ...       0.00
freq.    1687.89  E(vib)   ...       0.00
freq.    2567.17  E(vib)   ...       0.00
freq.    3063.33  E(vib)   ...       0.00
freq.    3065.52  E(vib)   ...       0.00
freq.    3075.51  E(vib)   ...       0.00
freq.    3077.79  E(vib)   ...       0.00
freq.    3082.11  E(vib)   ...       0.00
freq.    3083.57  E(vib)   ...       0.00
freq.    3088.19  E(vib)   ...       0.00
freq.    3092.10  E(vib)   ...       0.00
freq.    3116.60  E(vib)   ...       0.00
freq.    3118.29  E(vib)   ...       0.00
freq.    3126.43  E(vib)   ...       0.00
freq.    3156.41  E(vib)   ...       0.00
freq.    3161.57  E(vib)   ...       0.00
freq.    3163.57  E(vib)   ...       0.00
freq.    3166.97  E(vib)   ...       0.00
freq.    3169.26  E(vib)   ...       0.00

Rotational constants in cm-1:     0.012375     0.006491     0.005619

                      ***********************HURRAY********************
                             ****ORCA TERMINATED NORMALLY****
TOTAL RUN TIME: 0 days 2 hours 37 minutes 47 seconds 735 msec
